ITEM: TIMESTEP
0
ITEM: NUMBER OF ATOMS
360
ITEM: BOX BOUNDS pp pp pp
0.0000000000000000e+00 6.6943295008216896e+00
0.0000000000000000e+00 6.6943295008216896e+00
0.0000000000000000e+00 6.6943295008216896e+00
ITEM: ATOMS id type xs ys zs
183 1 0.165976 0.103654 0.0678805
302 2 0.213556 0.248027 0.0627495
207 1 0.031993 0.0847382 0.126752
3 1 0.114143 0.223093 0.141488
306 2 0.0699279 0.170359 0.019004
77 1 0.25275 0.215015 0.19041
290 2 0.390206 0.208802 0.120588
103 1 0.325973 0.144666 0.0356947
63 1 0.439468 0.0811495 0.149949
52 1 0.484343 0.181842 0.0126838
252 1 0.287536 0.0474032 0.179146
42 1 0.185106 0.389686 0.177818
129 1 0.0482456 0.343194 0.086669
28 1 0.223958 0.366787 0.00799756
139 1 0.103743 0.499051 0.0834453
201 1 0.334563 0.315711 0.0950963
182 1 0.385037 0.451964 0.0185199
79 1 0.150649 0.112341 0.259889
265 1 0.0452707 0.0619108 0.353284
318 2 0.126716 0.168085 0.379304
348 2 0.298148 0.0634249 0.305638
236 1 0.259085 0.191738 0.352894
137 1 0.38491 0.166468 0.275196
281 1 0.00622778 0.344852 0.315088
235 1 0.125114 0.262006 0.286142
204 1 0.118965 0.436615 0.320313
188 1 0.25198 0.33875 0.371695
170 1 0.286001 0.450797 0.276921
191 1 0.460849 0.425119 0.213267
190 1 0.358873 0.319548 0.243918
285 1 0.42367 0.403194 0.378648
160 1 0.0972231 0.120275 0.515003
132 1 0.18891 0.0551616 0.403169
88 1 0.00849695 0.214814 0.417093
10 1 0.270944 0.161299 0.509499
9 1 0.444925 0.206495 0.555748
32 1 0.381736 0.111482 0.426123
297 2 0.293676 0.0367793 0.5052
87 1 0.0669047 0.496336 0.473918
163 1 0.160048 0.405168 0.572612
5 1 0.145829 0.272797 0.459618
350 2 0.179342 0.421749 0.452885
176 1 0.0171593 0.31524 0.547487
351 2 0.0391032 0.370632 0.440529
53 1 0.381939 0.266559 0.424641
270 1 0.470027 0.370282 0.521952
127 1 0.278568 0.304786 0.562596
68 1 0.311663 0.429971 0.501991
113 1 0.0645372 0.0516749 0.659333
217 1 0.160583 0.23454 0.773162
29 1 0.171605 0.0580781 0.769245
338 2 0.0580526 0.128277 0.786205
115 1 0.0236905 0.221981 0.684935
255 1 0.150416 0.244792 0.6157
25 1 0.216593 0.0680732 0.611171
240 1 0.485272 0.0291759 0.694319
54 1 0.296685 0.210258 0.668686
57 1 0.440622 0.170151 0.719819
229 1 0.331505 0.0454307 0.748233
197 1 0.370218 0.0818917 0.613656
334 2 0.0949877 0.332508 0.701886
193 1 0.238358 0.344319 0.704691
56 1 0.122378 0.463045 0.780489
231 1 0.0481481 0.476505 0.6404
30 1 0.397781 0.368385 0.663614
20 1 0.266662 0.492201 0.644606
55 1 0.117719 0.126602 0.897969
11 1 0.044278 0.00391534 0.829991
37 1 0.254888 0.0580949 0.918228
247 1 0.251522 0.226678 0.92172
24 1 0.378461 0.14069 0.881407
354 2 0.472026 0.224355 0.848095
333 2 0.412769 0.0690472 0.975292
312 2 0.28734 0.164377 0.804106
95 1 0.0527545 0.331932 0.819001
203 1 0.0981751 0.446882 0.936592
214 1 0.220188 0.362579 0.856496
122 1 0.111878 0.277415 0.944755
12 1 0.280499 0.491611 0.911233
344 2 0.331392 0.370987 0.926072
8 1 0.412663 0.295512 0.944309
41 1 0.351194 0.272602 0.808301
45 1 0.363399 0.415379 0.804581
23 1 0.0963205 0.686989 0.181067
71 1 0.24331 0.671073 0.136627
125 1 0.136339 0.633302 0.0232661
49 1 0.0323149 0.726815 0.0446581
199 1 0.495163 0.626773 0.176645
15 1 0.378597 0.614616 0.0698506
308 2 0.395945 0.504146 0.149874
58 1 0.389689 0.733299 0.191124
227 1 0.268422 0.50172 0.0851654
38 1 0.237242 0.92593 0.106114
96 1 0.185984 0.787821 0.0202202
278 1 0.0872054 0.874613 0.112598
328 2 0.124697 0.992572 0.146896
225 1 0.368004 0.995445 0.0570802
327 2 0.454541 0.768826 0.0707534
162 1 0.443181 0.882172 0.148961
81 1 0.328051 0.805402 0.068612
283 1 0.210638 0.678497 0.301431
198 1 0.0278978 0.573521 0.290065
141 1 0.171757 0.558242 0.213545
62 1 0.0116256 0.74316 0.368718
31 1 0.225957 0.531309 0.386798
200 1 0.362882 0.691048 0.344017
223 1 0.338755 0.584859 0.231899
48 1 0.380831 0.552231 0.381642
299 2 0.474568 0.505729 0.315021
310 2 0.14153 0.756901 0.379031
145 1 0.0429971 0.959048 0.237388
75 1 0.122221 0.819682 0.255183
232 1 0.18874 0.957726 0.261567
241 1 0.0979029 0.897847 0.390701
266 1 0.316489 0.955496 0.378253
315 2 0.314659 0.927011 0.218665
272 1 0.251983 0.822377 0.372325
242 1 0.401715 0.846764 0.297284
248 1 0.267287 0.809285 0.219577
171 1 0.431327 0.998399 0.275222
27 1 0.196335 0.563913 0.531651
178 1 0.112092 0.638658 0.414905
324 2 0.0115469 0.730705 0.514668
39 1 0.0672033 0.631579 0.565718
292 2 0.18921 0.688841 0.576964
316 2 0.345226 0.719105 0.547392
271 1 0.264747 0.685161 0.45764
108 1 0.431896 0.665356 0.479561
296 2 0.320745 0.582978 0.516486
118 1 0.413632 0.514449 0.572311
93 1 0.121746 0.787115 0.507369
66 1 0.226052 0.930571 0.493404
167 1 0.0801802 0.972047 0.51518
116 1 0.401527 0.966327 0.51343
73 1 0.381508 0.817347 0.459011
47 1 0.259761 0.798345 0.577481
105 1 0.150317 0.596163 0.70471
85 1 0.052728 0.698347 0.777134
291 2 0.247103 0.692908 0.766876
345 2 0.017272 0.565419 0.717161
35 1 0.441789 0.527564 0.718009
104 1 0.454519 0.662335 0.625212
246 1 0.294998 0.639043 0.637228
173 1 0.284969 0.561123 0.780935
90 1 0.365884 0.687343 0.775466
144 1 0.247426 0.91686 0.78471
154 1 0.15855 0.753896 0.681784
219 1 0.156153 0.910519 0.643634
13 1 0.00756138 0.782604 0.641353
347 2 0.0313927 0.906532 0.611102
210 1 0.0631374 0.853964 0.78189
216 1 0.416144 0.827056 0.60605
239 1 0.30152 0.797703 0.721683
288 1 0.307172 0.933339 0.640567
209 1 0.445113 0.891807 0.738946
336 2 0.47125 0.757933 0.708378
149 1 0.138528 0.597907 0.864611
357 2 0.0966665 0.702711 0.928447
134 1 0.268017 0.644839 0.937434
97 1 0.420737 0.553024 0.873705
4 1 0.415733 0.694538 0.950524
148 1 0.203724 0.757124 0.863086
335 2 0.141127 0.926979 0.851581
218 1 0.0806735 0.854116 0.933977
213 1 0.137139 0.985735 0.989223
280 1 0.359373 0.815568 0.872983
102 1 0.448495 0.859209 0.990933
1 1 0.375653 0.976168 0.886081
187 1 0.25702 0.898162 0.945709
185 1 0.631221 0.232991 0.0874091
114 1 0.71933 0.102223 0.0593106
286 1 0.592589 0.0834146 0.138593
341 2 0.736312 0.19207 0.154048
226 1 0.501118 0.246482 0.17023
46 1 0.530494 0.0187035 0.0234134
16 1 0.872874 0.0879086 0.109398
222 1 0.957408 0.206943 0.0599072
82 1 0.870223 0.213875 0.189667
287 1 0.748787 0.319153 0.173007
245 1 0.692201 0.459885 0.12241
117 1 0.663912 0.363093 0.00867968
249 1 0.601237 0.360511 0.195739
174 1 0.5035 0.352595 0.0613755
212 1 0.966707 0.46614 0.0277091
340 2 0.813433 0.433243 0.189761
301 2 0.978616 0.300386 0.186416
61 1 0.890182 0.359244 0.102325
76 1 0.78538 0.250215 0.0455722
147 1 0.990361 0.452509 0.192644
159 1 0.701956 0.104667 0.358776
359 2 0.520972 0.136206 0.246843
94 1 0.611545 0.0219233 0.275632
256 1 0.645397 0.200524 0.249309
72 1 0.739594 0.0817585 0.20885
224 1 0.527073 0.106896 0.373906
158 1 0.890661 0.12456 0.383256
230 1 0.920331 0.0422697 0.235628
194 1 0.785797 0.23935 0.311467
267 1 0.986344 0.173278 0.261971
135 1 0.569655 0.405316 0.346362
326 2 0.663566 0.324282 0.305971
275 1 0.718552 0.45262 0.280704
157 1 0.500503 0.26891 0.324022
337 2 0.817119 0.453294 0.355067
202 1 0.868674 0.370954 0.276606
304 2 0.911203 0.253028 0.308271
123 1 0.93649 0.469356 0.390608
101 1 0.665805 0.134862 0.507347
277 1 0.522596 0.0582349 0.538311
321 2 0.500781 0.231388 0.441028
342 2 0.572481 0.225564 0.543313
36 1 0.63125 0.247743 0.40964
221 1 0.792574 0.232664 0.498478
250 1 0.788239 0.0447874 0.471349
70 1 0.949711 0.157056 0.548225
152 1 0.898687 0.0158387 0.585206
311 2 0.657079 0.443685 0.430969
111 1 0.621964 0.354258 0.53021
106 1 0.748394 0.347725 0.413063
298 2 0.895941 0.301433 0.574334
100 1 0.781608 0.361615 0.561011
150 1 0.787954 0.484289 0.47135
175 1 0.898682 0.32227 0.431895
126 1 0.920432 0.430926 0.540651
89 1 0.711054 0.124365 0.727377
138 1 0.583586 0.143239 0.650879
22 1 0.62115 0.234963 0.787651
234 1 0.659239 0.0134387 0.637054
69 1 0.78518 0.120583 0.604885
260 1 0.921815 0.100411 0.71395
360 2 0.931218 0.241218 0.757725
7 1 0.844923 0.239732 0.672826
206 1 0.686449 0.253366 0.632033
352 2 0.73279 0.268559 0.749205
237 1 0.547563 0.441096 0.64022
130 1 0.644349 0.366183 0.733044
186 1 0.539605 0.28798 0.652704
65 1 0.511836 0.335443 0.785421
258 1 0.577967 0.482326 0.79926
51 1 0.904087 0.493677 0.723872
228 1 0.797794 0.38122 0.722361
34 1 0.953445 0.355092 0.680093
172 1 0.683029 0.131074 0.89556
303 2 0.67207 0.228798 0.968081
99 1 0.522963 0.0949223 0.863577
353 2 0.604655 0.116159 0.992924
254 1 0.656404 0.00345482 0.821135
80 1 0.992307 0.0630252 0.981072
276 1 0.834652 0.130951 0.955203
59 1 0.980274 0.201828 0.873374
43 1 0.890207 0.0386725 0.843672
314 2 0.769633 0.0693853 0.825456
33 1 0.81896 0.194218 0.816359
26 1 0.730612 0.295845 0.868075
263 1 0.56069 0.270746 0.925332
330 2 0.623995 0.363876 0.871103
273 1 0.728907 0.455947 0.849939
50 1 0.514807 0.437416 0.930016
295 2 0.84291 0.263524 0.926801
153 1 0.81072 0.394976 0.971306
14 1 0.94865 0.318896 0.967842
346 2 0.85514 0.460526 0.836489
180 1 0.885973 0.339767 0.834195
264 1 0.97634 0.467033 0.859656
18 1 0.645186 0.637609 0.0908171
289 2 0.506561 0.647422 0.0447062
268 1 0.533911 0.509856 0.0722744
6 1 0.883411 0.670847 0.0184288
269 1 0.87396 0.677969 0.178692
166 1 0.845257 0.538226 0.0915196
331 2 0.773548 0.649372 0.0888223
92 1 0.990691 0.597556 0.118971
322 2 0.531106 0.975704 0.187724
164 1 0.565567 0.757878 0.145303
211 1 0.61678 0.92879 0.121054
165 1 0.708032 0.851934 0.0281999
156 1 0.862927 0.818878 0.0500018
21 1 0.750074 0.753247 0.146418
136 1 0.792317 0.929226 0.150199
109 1 0.824112 0.977596 0.0121849
208 1 0.954777 0.962899 0.0924557
355 2 0.983826 0.857099 0.0331751
17 1 0.968276 0.810501 0.185612
244 1 0.656644 0.575428 0.365277
349 2 0.597972 0.693029 0.393694
192 1 0.646754 0.701956 0.26464
257 1 0.577027 0.516251 0.228816
110 1 0.501254 0.62514 0.329481
307 2 0.500635 0.73575 0.258834
140 1 0.732016 0.588675 0.201436
184 1 0.859989 0.543262 0.279324
294 2 0.778244 0.691275 0.260863
161 1 0.882166 0.692827 0.330369
300 2 0.99195 0.683778 0.25479
323 2 0.834132 0.581693 0.397884
243 1 0.506067 0.786263 0.3743
358 2 0.716386 0.954512 0.244717
124 1 0.555217 0.880482 0.273347
179 1 0.702993 0.852794 0.331579
317 2 0.64968 0.820408 0.211592
262 1 0.958138 0.875227 0.334785
64 1 0.824581 0.826238 0.249598
320 2 0.911444 0.918497 0.224584
196 1 0.820946 0.974456 0.341038
325 2 0.877146 0.793128 0.397011
309 2 0.724918 0.604637 0.481492
151 1 0.586259 0.653341 0.504371
91 1 0.652795 0.515133 0.542627
251 1 0.716691 0.711629 0.553957
215 1 0.521777 0.515708 0.445141
128 1 0.746357 0.702176 0.401452
279 1 0.812874 0.583393 0.580127
98 1 0.953487 0.621715 0.442037
259 1 0.869481 0.725642 0.527909
339 2 0.97291 0.556152 0.56842
343 2 0.511013 0.793678 0.505747
143 1 0.663967 0.951127 0.432491
205 1 0.544024 0.913152 0.583421
83 1 0.630127 0.805197 0.45911
220 1 0.513106 0.955934 0.410553
142 1 0.796138 0.87594 0.467833
19 1 0.981024 0.851694 0.504139
107 1 0.943154 0.983632 0.436656
329 2 0.776231 0.947453 0.579053
120 1 0.650795 0.726112 0.744578
293 2 0.697785 0.64489 0.652573
131 1 0.529702 0.643235 0.791857
189 1 0.58006 0.596179 0.65374
78 1 0.708887 0.506937 0.68354
2 1 0.798404 0.625713 0.720937
112 1 0.940159 0.646737 0.655513
168 1 0.610075 0.881829 0.735739
60 1 0.567799 0.772049 0.623387
261 1 0.696076 0.850828 0.607965
67 1 0.863712 0.855632 0.610435
332 2 0.790848 0.751013 0.645304
133 1 0.959049 0.939258 0.716668
238 1 0.764966 0.831245 0.748123
177 1 0.798571 0.999274 0.72161
146 1 0.898318 0.775273 0.741355
44 1 0.542372 0.594093 0.937048
356 2 0.621416 0.708118 0.878141
40 1 0.728376 0.668644 0.960307
282 1 0.689766 0.519185 0.979055
119 1 0.678708 0.600559 0.824593
253 1 0.566934 0.744384 0.991684
155 1 0.84688 0.551702 0.934225
319 2 0.793233 0.675885 0.847178
195 1 0.974416 0.745862 0.90235
284 1 0.919188 0.624469 0.818123
121 1 0.997373 0.598334 0.95026
181 1 0.506495 0.788868 0.832038
84 1 0.525429 0.940844 0.867132
274 1 0.653785 0.846838 0.884917
86 1 0.663045 0.976798 0.968214
313 2 0.576706 0.876479 0.998541
233 1 0.811391 0.796991 0.913551
305 2 0.873799 0.858987 0.824894
74 1 0.931139 0.906955 0.923927
169 1 0.776419 0.93862 0.868355
ITEM: TIMESTEP
100000
ITEM: NUMBER OF ATOMS
360
ITEM: BOX BOUNDS pp pp pp
0.0000000000000000e+00 6.6943295008216896e+00
0.0000000000000000e+00 6.6943295008216896e+00
0.0000000000000000e+00 6.6943295008216896e+00
ITEM: ATOMS id type xs ys zs
55 1 0.167857 0.110539 0.109208
217 1 0.086124 0.203865 0.0409907
207 1 0.0444216 0.0319164 0.101245
84 1 0.450681 0.0685681 0.00724399
318 2 0.0568207 0.145756 0.187204
225 1 0.301836 0.00589493 0.0475406
46 1 0.412139 0.0664223 0.164608
103 1 0.339314 0.177655 0.0754507
223 1 0.264758 0.432037 0.189361
65 1 0.38181 0.351433 0.0752668
8 1 0.455235 0.225225 0.167773
298 2 0.145868 0.386177 0.200535
344 2 0.260199 0.397823 0.0411429
122 1 0.0280403 0.341061 0.060878
203 1 0.191971 0.303721 0.0908798
299 2 0.381473 0.483217 0.143814
212 1 0.0166612 0.434712 0.190134
129 1 0.0789418 0.265817 0.205168
235 1 0.141723 0.45731 0.0829324
304 2 0.194432 0.211535 0.187053
236 1 0.120403 0.18132 0.321465
285 1 0.44426 0.353378 0.384733
77 1 0.13257 0.0355678 0.243822
201 1 0.388728 0.203568 0.313948
252 1 0.280812 0.123451 0.216228
290 2 0.262006 0.168281 0.346693
137 1 0.346791 0.0310392 0.33556
52 1 0.491712 0.0831932 0.286178
190 1 0.197956 0.306929 0.285993
5 1 0.0660147 0.374962 0.316871
53 1 0.255102 0.433749 0.34843
348 2 0.331585 0.331488 0.312468
226 1 0.406663 0.394093 0.229872
232 1 -0.0033553 0.0570853 0.29488
170 1 0.393671 0.499805 0.354521
42 1 0.313193 0.271665 0.198913
229 1 0.446436 0.00603773 0.493617
87 1 0.145857 0.20241 0.493589
241 1 0.0332549 0.110935 0.4341
9 1 0.387234 0.301042 0.559832
157 1 0.295569 0.267957 0.421942
163 1 0.22399 0.327213 0.577293
138 1 0.458582 0.159811 0.582306
10 1 0.353458 0.126077 0.459259
321 2 0.425211 0.235845 0.450156
113 1 0.188357 0.0684382 0.396722
335 2 0.234709 0.0957031 0.509402
127 1 0.286936 0.190605 0.581805
20 1 0.329134 0.416165 0.476846
27 1 0.148799 0.342373 0.439421
360 2 0.0712781 0.330545 0.542286
275 1 -0.00240918 0.431201 0.473035
350 2 0.470695 0.379595 0.508682
70 1 0.109747 0.0688415 0.565603
79 1 0.0115406 0.265733 0.438149
152 1 0.021364 0.215983 0.584619
214 1 0.446696 0.454708 0.599901
231 1 0.0947373 0.465135 0.582988
255 1 0.0949532 0.136137 0.71941
297 2 0.16003 0.190252 0.623607
11 1 0.247394 0.111324 0.714562
57 1 0.495941 0.0756099 0.721818
56 1 0.259969 0.270162 0.714088
54 1 0.348812 0.0487476 0.611543
29 1 0.401952 0.214043 0.713384
354 2 0.360675 0.0883413 0.769262
247 1 0.107211 0.301262 0.67955
173 1 0.203591 0.425448 0.705488
85 1 0.0442413 0.469551 0.739886
270 1 0.355886 0.382499 0.70916
315 2 0.024197 0.0625842 0.80606
339 2 0.289068 0.444046 0.605629
148 1 0.149382 0.0153005 0.805357
37 1 0.209537 0.150327 0.960467
208 1 0.0653967 0.139775 0.890876
355 2 0.214983 0.107571 0.841168
186 1 0.438261 0.305253 0.841975
24 1 0.315389 0.0472906 0.893625
333 2 0.357119 0.146853 0.94571
22 1 0.448873 0.13707 0.855472
41 1 0.308515 0.195039 0.840504
28 1 0.15489 0.226935 0.8098
59 1 0.0494606 0.298731 0.9044
34 1 0.026811 0.45342 0.907783
71 1 0.159135 0.394443 0.959536
30 1 0.243805 0.352186 0.836573
334 2 0.121301 0.363148 0.801594
302 2 0.174186 0.272372 0.937148
245 1 0.491586 0.399616 0.960237
193 1 0.299749 0.288348 0.965852
330 2 0.426259 0.427345 0.852127
12 1 0.329126 0.449518 0.948903
327 2 0.109263 0.0759846 1.00024
174 1 0.44838 0.244292 0.981534
300 2 0.195577 0.593191 0.158662
204 1 0.0740091 0.612033 0.128321
139 1 0.212707 0.673898 0.0217972
31 1 0.282498 0.686249 0.154026
15 1 0.274999 0.545365 0.0762399
58 1 0.43083 0.704998 0.117264
308 2 0.338843 0.65353 0.0430202
199 1 0.421828 0.542547 0.0369096
313 2 0.388837 0.783877 0.00681217
4 1 0.282141 0.81902 0.0691352
81 1 0.141331 0.771683 0.119434
183 1 0.162642 0.93295 0.116274
23 1 0.0567888 0.894838 0.0323955
253 1 0.427961 0.90563 0.0375633
357 2 0.081843 0.710284 0.0225743
220 1 0.418227 0.84588 0.182786
178 1 0.174925 0.66296 0.277741
324 2 0.0515111 0.616898 0.252499
268 1 0.145304 0.514992 0.250251
277 1 0.37681 0.865329 0.3187
283 1 0.244403 0.820924 0.223406
310 2 0.396719 0.64061 0.381684
271 1 0.386095 0.706891 0.271732
188 1 0.300854 0.566463 0.243772
266 1 0.279108 0.75728 0.368085
198 1 0.0312889 0.749682 0.230366
62 1 0.275649 0.590608 0.390943
75 1 0.123694 0.80945 0.354909
132 1 0.219396 0.926565 0.335906
123 1 0.00531487 0.519449 0.33002
322 2 0.440927 0.96533 0.255035
17 1 0.0418517 0.909313 0.252465
162 1 0.299199 0.95728 0.206243
262 1 0.0191218 0.673561 0.364518
200 1 0.454222 0.578163 0.220135
39 1 0.155003 0.682378 0.445423
161 1 0.136342 0.513916 0.414572
309 2 0.110544 0.591947 0.521985
93 1 0.22283 0.532945 0.536474
116 1 0.358638 0.84923 0.470463
73 1 0.44582 0.730332 0.455275
105 1 0.383974 0.573338 0.499378
288 1 0.307338 0.704953 0.521774
316 2 0.455476 0.614893 0.597146
336 2 0.421888 0.793921 0.567215
347 2 0.155485 0.964702 0.502474
272 1 0.198565 0.836511 0.503553
19 1 0.0473485 0.917967 0.546711
66 1 0.290289 0.980858 0.487575
142 1 0.0225982 0.73503 0.52503
219 1 0.168682 0.684472 0.594765
210 1 0.080307 0.96236 0.40242
112 1 0.0387103 0.607436 0.626069
49 1 0.0757438 0.715842 0.734399
149 1 0.165744 0.588279 0.715209
280 1 0.250855 0.721487 0.707833
187 1 0.37282 0.831935 0.775786
47 1 0.397521 0.706605 0.650893
154 1 0.314472 0.565054 0.651115
45 1 0.453884 0.567041 0.713904
209 1 0.313401 0.973077 0.743249
25 1 0.142511 0.827593 0.64355
144 1 0.307131 0.858564 0.628397
246 1 0.459399 0.937662 0.653204
133 1 0.0375977 0.982222 0.693159
291 2 0.283413 0.621334 0.792646
167 1 0.198729 0.97188 0.644953
227 1 0.171803 0.673809 0.863287
1 1 0.219659 0.84145 0.804827
109 1 0.0399314 0.995086 0.914346
104 1 0.456365 0.816337 0.902548
345 2 0.216755 0.515817 0.963087
90 1 0.302684 0.598171 0.92083
131 1 0.452557 0.674401 0.952856
97 1 0.486562 0.540759 0.868459
141 1 0.0237864 0.74922 0.907807
213 1 0.163069 0.808383 0.948355
195 1 0.00957116 0.598899 0.831964
125 1 0.0908056 0.574389 0.972507
96 1 0.0734498 0.860134 0.816822
171 1 0.325728 0.894353 0.918646
134 1 0.310902 0.745335 0.89442
102 1 0.449042 0.970097 0.844361
38 1 0.186222 0.965447 0.957306
35 1 0.400862 0.666086 0.801034
95 1 0.166379 0.505575 0.845425
258 1 0.324177 0.49351 0.799434
159 1 0.667769 0.188143 0.0564112
99 1 0.56607 0.126302 0.155651
306 2 0.726768 0.122276 0.172441
281 1 0.931033 0.307855 0.169399
3 1 0.943248 0.149381 0.144594
76 1 0.790518 0.229986 0.127372
14 1 0.900945 0.238172 0.0225733
16 1 0.829222 0.0525152 0.0984887
182 1 0.505541 0.451884 0.124304
50 1 0.560225 0.298033 0.0906474
18 1 0.643172 0.404105 0.0176034
202 1 0.647025 0.424292 0.173513
301 2 0.709291 0.318423 0.0890775
61 1 0.812669 0.407884 0.0890323
353 2 0.534806 0.182824 0.0475303
328 2 0.922445 0.0298904 0.187732
121 1 0.964543 0.500934 0.0603298
317 2 0.574816 0.0400209 0.0687255
211 1 0.697148 0.038573 0.0249584
286 1 0.675008 0.00724567 0.182353
294 2 0.561777 0.512223 0.0305002
194 1 0.713038 0.483255 0.303893
256 1 0.659 0.272072 0.198882
185 1 0.654305 0.148102 0.287103
175 1 0.875865 0.494574 0.2432
160 1 0.884614 0.102002 0.389551
88 1 0.942153 0.207842 0.295854
72 1 0.786399 0.24817 0.316442
359 2 0.769086 0.116708 0.355788
267 1 0.826857 0.107009 0.248263
82 1 0.914775 0.357414 0.335641
222 1 0.789615 0.372669 0.234469
341 2 0.671039 0.336128 0.311979
287 1 0.534828 0.473397 0.288605
32 1 0.541563 0.262304 0.301942
303 2 0.539095 0.359865 0.225105
343 2 0.613106 0.0249382 0.308914
221 1 0.778898 0.350735 0.420917
100 1 0.652275 0.160847 0.551325
279 1 0.86419 0.435618 0.557649
101 1 0.653381 0.239827 0.405901
126 1 0.88959 0.283017 0.54479
250 1 0.914457 0.113336 0.542452
69 1 0.779001 0.186859 0.467459
60 1 0.785099 0.0245449 0.486568
78 1 0.696685 0.316117 0.550215
36 1 0.541553 0.265964 0.510456
68 1 0.581888 0.410491 0.572815
240 1 0.580762 0.0301439 0.59832
249 1 0.603483 0.387735 0.405031
234 1 0.508241 0.135036 0.428341
63 1 0.656247 0.0822246 0.42236
51 1 0.845332 0.494088 0.405561
244 1 0.684167 0.50132 0.472554
191 1 0.51267 0.501707 0.452306
337 2 0.794573 0.242258 0.606518
351 2 0.872884 0.259661 0.411158
177 1 0.653491 0.0810855 0.741601
342 2 0.568629 0.154426 0.666764
106 1 0.694476 0.233301 0.685946
180 1 0.880173 0.480252 0.706886
230 1 0.799959 -0.000119849 0.767684
7 1 0.948112 0.114352 0.688771
312 2 0.886128 0.224881 0.686889
115 1 1.00014 0.235944 0.77308
130 1 0.741875 0.472648 0.787942
98 1 0.972046 0.359789 0.653295
33 1 0.769766 0.151427 0.796045
189 1 0.657958 0.386115 0.694699
176 1 0.796946 0.115492 0.640201
111 1 0.538018 0.282267 0.668178
264 1 0.822741 0.34504 0.684883
89 1 0.57469 0.214295 0.796206
237 1 0.513173 0.406055 0.755393
172 1 0.586466 0.110495 0.934312
295 2 0.673232 0.197392 0.873449
314 2 0.55397 0.0542885 0.82942
254 1 0.687491 0.00403025 0.876074
263 1 0.762298 0.312392 0.97643
228 1 0.853868 0.259518 0.856416
276 1 0.780025 0.158588 0.958516
338 2 0.955875 0.209067 0.910672
260 1 0.916246 0.110087 0.843163
26 1 0.599376 0.278763 0.937512
120 1 0.610722 0.436198 0.867401
206 1 0.70504 0.319131 0.827321
155 1 0.901856 0.378468 0.971469
117 1 0.742679 0.475395 0.941862
289 2 0.827568 0.384649 0.875754
80 1 0.948635 0.0989954 1.00119
114 1 0.852173 0.00183409 0.938424
284 1 0.940804 0.370847 0.808431
164 1 0.557133 0.632029 0.0660729
282 1 0.703593 0.547603 0.0807827
21 1 0.707071 0.703223 0.135295
156 1 0.929058 0.907286 0.129726
181 1 0.541038 0.78263 0.0290983
358 2 0.803836 0.960821 0.181054
92 1 0.851483 0.58731 0.0975717
305 2 0.935188 0.978194 0.0289098
165 1 0.796073 0.905514 0.0664588
269 1 0.85728 0.753283 0.148305
248 1 0.987114 0.765382 0.0617635
192 1 0.64651 0.853717 0.109018
242 1 0.565247 0.747751 0.189717
94 1 0.532953 0.953115 0.157477
140 1 0.663444 0.73288 0.316834
64 1 0.889014 0.940717 0.288206
257 1 0.618127 0.585813 0.212082
296 2 0.60888 0.551966 0.341115
166 1 0.763789 0.633304 0.252124
184 1 0.92159 0.63865 0.235317
340 2 0.899884 0.610698 0.351995
128 1 0.844759 0.740077 0.329034
197 1 0.507351 0.961712 0.367607
224 1 0.618493 0.899532 0.265299
158 1 0.74057 0.984602 0.31819
325 2 0.716987 0.857098 0.35093
48 1 0.529077 0.648296 0.324907
323 2 0.912975 0.822259 0.257219
136 1 0.763053 0.840153 0.222781
145 1 0.970781 0.8169 0.398406
331 2 0.760459 0.519434 0.199447
124 1 0.521046 0.80632 0.341799
110 1 0.59196 0.635429 0.459612
215 1 0.53836 0.710633 0.581465
265 1 0.92992 0.965039 0.464348
108 1 0.715271 0.651738 0.568848
332 2 0.769383 0.903254 0.525489
150 1 0.87361 0.683625 0.469567
311 2 0.804081 0.562471 0.512471
259 1 0.981436 0.577649 0.47377
67 1 0.894062 0.8299 0.534139
307 2 0.598183 0.775336 0.44798
179 1 0.658989 0.938221 0.461849
151 1 0.718243 0.786882 0.483181
243 1 0.52644 0.862849 0.512225
352 2 0.966968 0.501518 0.583969
196 1 0.826567 0.879176 0.40175
147 1 0.753729 0.627789 0.407506
251 1 0.653253 0.712834 0.705893
293 2 0.543153 0.65414 0.707081
216 1 0.621613 0.566611 0.764112
43 1 0.855098 0.829768 0.795982
329 2 0.80728 0.904555 0.683409
319 2 0.908408 0.598562 0.768617
2 1 0.776695 0.613273 0.741696
13 1 0.921373 0.703027 0.692582
261 1 0.727324 0.976753 0.618523
168 1 0.58331 0.948361 0.763344
118 1 0.507797 0.795789 0.717498
238 1 0.709511 0.861314 0.775348
91 1 0.717509 0.509953 0.622116
83 1 0.782564 0.791267 0.6383
135 1 0.571381 0.562898 0.600327
349 2 0.779438 0.743395 0.756376
107 1 0.982262 0.833834 0.672184
292 2 0.975647 0.780318 0.7963
143 1 0.891808 0.967039 0.621347
205 1 0.645048 0.83847 0.610456
146 1 0.858595 0.598164 0.617753
44 1 0.623721 0.578335 0.941002
119 1 0.707608 0.700125 0.852478
346 2 0.578197 0.693979 0.951711
320 2 0.708809 0.570063 0.858359
239 1 0.551404 0.690812 0.833036
233 1 0.859919 0.680244 0.850005
273 1 0.776054 0.623853 0.966608
153 1 0.869775 0.515426 0.861101
356 2 0.675016 0.910569 1.00423
6 1 0.944795 0.64048 0.990315
274 1 0.611952 0.830227 0.87702
86 1 0.558507 0.950908 0.961321
74 1 0.930662 0.87042 0.93489
169 1 0.773267 0.876873 0.91002
326 2 0.86886 0.523138 0.985522
278 1 0.846919 0.760475 0.983377
40 1 0.693496 0.764408 0.989785
218 1 0.944091 0.959383 0.804456
ITEM: TIMESTEP
200000
ITEM: NUMBER OF ATOMS
360
ITEM: BOX BOUNDS pp pp pp
0.0000000000000000e+00 6.6943295008216896e+00
0.0000000000000000e+00 6.6943295008216896e+00
0.0000000000000000e+00 6.6943295008216896e+00
ITEM: ATOMS id type xs ys zs
8 1 0.187711 0.13057 0.085934
122 1 0.0472167 0.235079 0.152063
42 1 0.299172 0.411435 0.148172
302 2 0.129052 0.264875 0.00714014
223 1 0.229274 0.282818 0.0916081
203 1 0.315512 0.180203 0.0186939
304 2 0.360444 0.0641038 0.0902958
344 2 0.368053 0.230967 0.140173
193 1 0.469467 0.196206 0.0558348
157 1 0.105949 0.388621 0.165819
12 1 0.371082 0.322577 0.0374183
14 1 0.021667 0.342921 0.0275734
225 1 0.100979 0.0221088 0.00672156
204 1 0.430297 0.480648 0.202906
55 1 0.288446 0.156674 0.200787
32 1 0.451114 0.328169 0.168547
308 2 0.395965 0.477754 0.0698313
88 1 0.0965017 0.0854848 0.199206
37 1 0.0474562 0.166307 0.0106812
87 1 0.0976977 0.13093 0.345337
77 1 0.220208 0.057683 0.297226
321 2 0.243612 0.174537 0.33851
190 1 0.168327 0.239309 0.251575
270 1 0.437461 0.363628 0.324954
296 2 0.418359 0.23796 0.368671
316 2 0.499508 0.479396 0.320727
252 1 0.361253 0.121461 0.352226
10 1 0.311286 0.294423 0.258666
201 1 0.454104 0.19771 0.248125
234 1 0.37939 0.0341262 0.215725
191 1 0.250333 0.398754 0.366827
27 1 0.0709007 0.353972 0.315175
290 2 0.19747 0.374773 0.251595
188 1 0.140416 0.493404 0.284182
311 2 0.326316 0.433297 0.284746
298 2 0.0373021 0.216351 0.270467
241 1 0.0502273 0.0630025 0.496897
113 1 0.213915 0.14543 0.454852
98 1 0.0496981 0.221602 0.512334
66 1 0.476368 0.343249 0.474944
322 2 0.337293 0.112025 0.473773
272 1 0.437595 0.190598 0.485136
57 1 0.434641 0.0478873 0.566637
334 2 0.0259886 0.345362 0.444136
343 2 0.489582 0.092596 0.411804
152 1 0.196745 0.291235 0.550698
275 1 0.121283 0.434737 0.454044
110 1 0.405944 0.473879 0.556309
330 2 0.362443 0.38103 0.430274
56 1 0.355452 0.316922 0.55833
161 1 0.267789 0.4338 0.519566
127 1 0.309762 0.264442 0.419421
28 1 0.0548723 0.366952 0.572466
246 1 0.284752 0.015736 0.560123
237 1 0.293398 0.177087 0.597204
163 1 0.143785 0.277911 0.409969
208 1 0.110213 0.246149 0.668387
255 1 0.100708 0.0330648 0.725216
11 1 0.225402 0.136938 0.746326
120 1 0.380843 0.263745 0.724417
340 2 0.0421988 0.452401 0.681902
209 1 0.382666 0.0878464 0.705418
138 1 0.484055 0.20049 0.627241
315 2 0.0357939 0.00800538 0.625459
93 1 0.315534 0.449603 0.680633
297 2 0.268421 0.320821 0.658965
186 1 0.164515 0.406885 0.687683
111 1 0.475595 0.365625 0.647865
34 1 0.224481 0.283128 0.774171
115 1 0.0245622 0.343963 0.762479
70 1 0.153664 0.104575 0.605653
29 1 0.464418 0.17276 0.803941
218 1 -0.00180838 0.132225 0.635664
41 1 0.186984 0.147193 0.907104
103 1 0.265645 0.029531 0.998759
38 1 0.0342745 0.0776728 0.879872
199 1 0.441315 0.444212 0.954695
245 1 0.267292 0.422888 0.825083
303 2 0.349295 0.350578 0.900424
247 1 0.0956802 0.489957 0.809698
84 1 0.34699 0.0802429 0.874162
354 2 0.439673 0.165692 0.925072
319 2 0.147343 0.352576 0.840254
22 1 0.32678 0.230076 0.862263
90 1 0.297029 0.454965 0.98678
172 1 0.505143 0.0282889 0.837412
89 1 0.464474 0.299212 0.921192
30 1 0.228613 0.322801 0.948257
59 1 0.0782585 0.254016 0.88784
125 1 0.129157 0.444166 0.963041
24 1 0.186964 -0.00359294 0.851079
253 1 0.446427 0.0530064 0.990104
355 2 0.120554 0.176888 0.794078
97 1 0.433216 0.386983 0.806934
329 2 0.202043 0.645638 0.138438
268 1 0.0848105 0.59839 0.177736
94 1 0.371164 0.929803 0.0801612
139 1 0.32896 0.580614 0.124981
258 1 0.26354 0.703093 0.0343238
200 1 0.445359 0.679653 0.132978
162 1 0.238538 0.991068 0.151156
291 2 0.379584 0.794584 0.14527
81 1 0.0898239 0.778466 0.0382795
17 1 0.0857778 0.914015 0.109394
213 1 0.249573 0.824349 0.127121
333 2 0.19899 0.922228 0.0443181
242 1 0.486017 0.852526 0.155101
227 1 0.119209 0.62073 0.0149704
317 2 0.490161 0.904371 0.0376553
345 2 0.26597 0.583022 0.00909524
71 1 0.194787 0.510497 0.102764
131 1 0.402109 0.768383 0.00746348
92 1 0.0217974 0.500203 0.0738417
248 1 0.121037 0.751291 0.184968
31 1 0.172398 0.648215 0.289093
328 2 0.0868388 0.734534 0.328256
271 1 0.353124 0.841457 0.389369
137 1 0.468354 0.914031 0.311944
277 1 0.329186 0.888665 0.237591
220 1 0.423001 0.752265 0.271933
20 1 0.286747 0.547997 0.274981
226 1 0.429369 0.602659 0.29504
170 1 0.305694 0.679906 0.37915
285 1 0.368651 0.507419 0.400387
318 2 0.227722 0.923395 0.360286
283 1 0.219768 0.79185 0.317441
183 1 0.147232 0.913966 0.254123
327 2 0.0260882 0.975862 0.222429
232 1 0.0281754 0.983334 0.356084
64 1 -0.00210358 0.825369 0.295594
53 1 0.0466635 0.563826 0.388298
4 1 0.292272 0.707061 0.21926
184 1 0.179421 0.71711 0.460298
173 1 0.151194 0.524763 0.577895
39 1 0.214429 0.545365 0.426549
210 1 0.243567 0.880292 0.489843
73 1 0.445909 0.627017 0.469094
265 1 0.1658 0.992448 0.451059
178 1 0.328945 0.733761 0.524343
198 1 0.112977 0.856265 0.404172
145 1 0.0484851 0.646129 0.526442
266 1 0.392904 0.886274 0.539317
167 1 0.132974 0.924185 0.596316
19 1 0.0619469 0.799496 0.538593
323 2 0.0497472 0.916963 0.499914
347 2 0.196226 0.795182 0.571132
205 1 0.48057 0.785872 0.435196
288 1 0.306189 0.585217 0.564617
105 1 0.487357 0.734421 0.601643
132 1 0.334847 0.986031 0.431229
231 1 0.213761 0.697329 0.763179
112 1 0.0510656 0.58224 0.67617
154 1 0.20438 0.551051 0.719625
149 1 0.3395 0.611593 0.712567
310 2 0.304038 0.729312 0.648855
339 2 0.419587 0.607832 0.617098
1 1 0.261635 0.991932 0.709596
187 1 0.379349 0.942265 0.770149
309 2 0.169355 0.911299 0.727583
219 1 0.130013 0.797629 0.688384
148 1 -0.00203389 0.89379 0.660868
336 2 0.368398 0.959209 0.639804
75 1 0.188472 0.679615 0.613134
47 1 0.276851 0.851608 0.646551
45 1 0.403791 0.787557 0.724118
168 1 0.491395 0.915807 0.670404
91 1 0.493258 0.660374 0.744386
214 1 0.452413 0.52058 0.710229
95 1 0.213741 0.560929 0.883673
134 1 0.171565 0.734852 0.912322
144 1 0.241589 0.844894 0.811228
233 1 0.0547359 0.63987 0.824503
171 1 0.284144 0.871352 0.960544
280 1 0.325388 0.700508 0.882558