ITEM: TIMESTEP
0
ITEM: NUMBER OF ATOMS
360
ITEM: BOX BOUNDS pp pp pp
0.0000000000000000e+00 6.6943295008216896e+00
0.0000000000000000e+00 6.6943295008216896e+00
0.0000000000000000e+00 6.6943295008216896e+00
ITEM: ATOMS id type xs ys zs
119 1 0.228797 0.00302245 0.104843
163 1 0.233099 0.14066 0.0647095
76 1 0.0954819 0.0670442 0.140844
10 1 0.0649334 0.16256 0.0357031
4 1 0.135934 0.0149289 0.00271481
209 1 0.477366 0.226457 0.0436409
318 2 0.271858 0.0986993 0.180389
44 1 0.371837 0.00384418 0.155661
308 2 0.458045 0.0771022 0.0599922
174 1 0.366868 0.165051 0.131333
207 1 0.146663 0.286929 0.0605537
235 1 0.0487591 0.382561 0.0112409
305 2 0.0773127 0.356751 0.127544
216 1 0.208193 0.426795 0.0865979
294 2 0.428117 0.349372 0.072288
309 2 0.257243 0.26186 0.104201
58 1 0.344666 0.42517 0.116845
79 1 0.0388932 0.0729187 0.332011
40 1 0.181637 0.0248341 0.250798
7 1 0.219049 0.143089 0.342663
264 1 0.163765 0.19385 0.202893
191 1 0.352144 0.0960248 0.271064
351 2 0.479965 0.153396 0.332733
233 1 0.356802 0.192714 0.382278
154 1 0.267718 0.0109951 0.37443
271 1 0.438931 0.00311283 0.350131
93 1 0.245025 0.40796 0.36084
88 1 0.0372411 0.289804 0.226897
157 1 0.15258 0.29419 0.351463
87 1 0.198881 0.340936 0.214688
316 2 0.11489 0.413359 0.35464
136 1 0.0771438 0.435737 0.243441
91 1 0.445933 0.498943 0.205026
92 1 0.450111 0.268029 0.291415
319 2 0.272024 0.280824 0.333254
89 1 0.364421 0.389782 0.275165
115 1 0.312231 0.255108 0.227442
355 2 0.250963 0.4477 0.226352
300 2 0.0196164 0.0634753 0.452336
220 1 0.206606 0.155716 0.534613
231 1 0.0935954 0.183293 0.440561
101 1 0.155481 0.0409212 0.458433
278 1 0.0904487 0.219754 0.595276
14 1 0.477003 0.105877 0.479306
251 1 0.345298 0.0637937 0.486146
273 1 0.384124 0.216108 0.528833
299 2 0.0044677 0.293336 0.443878
158 1 0.23593 0.280859 0.475485
248 1 0.00967469 0.451514 0.555519
197 1 0.101139 0.348601 0.497619
110 1 0.231805 0.415962 0.538146
219 1 0.356339 0.388035 0.448791
81 1 0.484054 0.446182 0.462289
12 1 0.482385 0.344256 0.586617
356 2 0.242622 0.151305 0.782977
142 1 0.157973 0.138348 0.696616
70 1 0.0606541 0.0739311 0.606328
272 1 0.383079 0.20812 0.744289
183 1 0.300281 0.118579 0.646026
82 1 0.425974 0.0778998 0.61582
196 1 0.0548989 0.253958 0.733107
218 1 0.130518 0.363228 0.652461
73 1 0.0309502 0.419488 0.754943
22 1 0.226206 0.263974 0.717382
130 1 0.188601 0.387124 0.799307
302 2 0.221977 0.268076 0.600404
116 1 0.427725 0.365417 0.730105
5 1 0.258713 0.476182 0.676399
179 1 0.413679 0.479914 0.605142
345 2 0.391145 0.498206 0.716717
281 1 0.321941 0.339454 0.624895
195 1 0.181166 0.0189079 0.814838
306 2 0.208853 0.202062 0.950096
229 1 0.10831 0.147669 0.84384
27 1 0.242763 0.0891923 0.928087
187 1 0.369018 0.0214316 0.987634
222 1 0.343755 0.211485 0.98086
2 1 0.496706 0.133256 0.932787
263 1 0.360287 0.0823502 0.835523
292 2 0.0284634 0.26364 0.997455
208 1 0.117306 0.295299 0.893465
114 1 0.165165 0.472339 0.927354
357 2 0.0466325 0.449448 0.91281
336 2 0.283147 0.467126 0.947401
100 1 0.463029 0.262026 0.865288
241 1 0.394068 0.388296 0.962787
182 1 0.254569 0.352328 0.972089
185 1 0.32106 0.303339 0.843381
113 1 0.350831 0.474456 0.843361
337 2 0.183622 0.681382 0.0185991
112 1 0.241899 0.5596 0.0263279
184 1 0.0684375 0.65937 0.0753898
270 1 0.155955 0.743533 0.16299
21 1 0.0661075 0.508257 0.0907463
167 1 0.17634 0.583581 0.158226
37 1 0.338305 0.582275 0.144966
3 1 0.289038 0.726559 0.112098
194 1 0.0201049 0.917514 0.0348677
234 1 0.166457 0.831886 0.0517039
169 1 0.125422 0.913238 0.163495
80 1 0.025982 0.798362 0.192825
236 1 0.419665 0.775896 0.154682
156 1 0.476635 0.896422 0.115705
126 1 0.273034 0.87641 0.187469
350 2 0.417575 0.816096 0.0230293
147 1 0.324563 0.885863 0.0490108
358 2 0.0626581 0.562321 0.21042
29 1 0.0854083 0.67497 0.305639
32 1 0.193908 0.547008 0.317311
16 1 0.0233897 0.548022 0.34595
51 1 0.333207 0.553754 0.290762
198 1 0.295533 0.717117 0.263129
84 1 0.471574 0.544252 0.35069
214 1 0.342376 0.668555 0.394387
252 1 0.435551 0.650895 0.249629
293 2 0.134446 0.94038 0.383268
284 1 0.0114575 0.805476 0.336484
103 1 0.154164 0.855563 0.294684
20 1 0.20143 0.754492 0.392907
43 1 0.315356 0.849351 0.335822
256 1 0.438481 0.896971 0.253057
18 1 0.436796 0.772501 0.337507
343 2 0.334104 0.973436 0.273269
332 2 0.0825401 0.652661 0.425909
155 1 0.2141 0.629203 0.447241
181 1 0.112543 0.654202 0.571207
124 1 0.24298 0.728949 0.547364
69 1 0.136058 0.524006 0.485337
105 1 0.311907 0.526009 0.428034
127 1 0.273918 0.585063 0.573071
240 1 0.430674 0.586376 0.500043
322 2 0.367426 0.688029 0.519482
143 1 0.481789 0.715937 0.478798
151 1 0.086527 0.765466 0.477547
243 1 0.0186714 0.948395 0.408299
276 1 0.220829 0.898725 0.462611
59 1 0.0846066 0.915302 0.561275
211 1 0.470499 0.923179 0.524322
303 2 0.276535 0.97471 0.545009
250 1 0.354929 0.81776 0.484499
315 2 0.351088 0.943703 0.431474
301 2 0.458668 0.884103 0.406079
289 2 0.220477 0.519753 0.79845
45 1 0.126882 0.545451 0.684488
287 1 0.0488959 0.670116 0.710211
28 1 0.210664 0.686917 0.683917
133 1 0.395002 0.748914 0.62128
46 1 0.321239 0.600338 0.727905
340 2 0.410022 0.613919 0.626047
125 1 0.435066 0.704203 0.763189
173 1 0.0436298 0.910777 0.733606
247 1 0.0931742 0.796147 0.643404
8 1 0.193671 0.859013 0.728297
34 1 0.197058 0.996061 0.646443
109 1 0.386498 0.853352 0.730511
275 1 0.326263 0.989059 0.717458
221 1 0.28614 0.855794 0.618157
295 2 0.391527 0.926293 0.614579
298 2 0.479602 0.818325 0.664119
13 1 0.487484 0.957124 0.681005
244 1 0.285978 0.760462 0.798634
23 1 0.206199 0.618208 0.888179
74 1 0.101727 0.541837 0.822332
162 1 0.0506509 0.577829 0.946403
49 1 0.133839 0.736156 0.821583
99 1 0.367771 0.640757 0.865979
176 1 0.390262 0.552177 0.991413
213 1 0.473812 0.559062 0.814337
311 2 0.317086 0.648767 0.99925
193 1 0.424218 0.697904 0.996873
192 1 0.0468659 0.759425 0.958323
290 2 0.241898 0.938197 0.983188
352 2 0.0310637 0.969498 0.889304
353 2 0.0310645 0.805976 0.824335
33 1 0.147962 0.853397 0.904119
148 1 0.435506 0.968806 0.832324
149 1 0.273164 0.758805 0.955138
212 1 0.412448 0.809007 0.897972
327 2 0.390572 0.91787 0.93924
24 1 0.276631 0.917928 0.869927
117 1 0.579071 0.103118 0.0566134
326 2 0.695705 0.13964 0.155294
258 1 0.726301 0.145441 0.00937815
190 1 0.519425 0.187894 0.195125
189 1 0.689598 0.0197237 0.104437
262 1 0.516885 0.0356663 0.185805
227 1 0.955293 0.226989 0.118823
175 1 0.832583 0.0868302 0.13173
60 1 0.817055 0.22359 0.0823787
72 1 0.957405 0.0427526 0.0767081
134 1 0.531753 0.336865 0.153808
19 1 0.64526 0.26823 0.0863313
17 1 0.669915 0.419335 0.0844199
86 1 0.503765 0.453474 0.0539535
39 1 0.897351 0.341583 0.0276125
205 1 0.801619 0.369534 0.138086
31 1 0.963029 0.396279 0.162192
346 2 0.803051 0.439202 0.00881427
9 1 0.94326 0.48991 0.00347681
55 1 0.681437 0.0707371 0.249116
288 1 0.595016 0.234162 0.317383
97 1 0.73135 0.227058 0.359366
199 1 0.588025 0.0817771 0.362007
85 1 0.72614 0.244873 0.202247
25 1 0.813585 0.136144 0.26999
324 2 0.859917 0.218682 0.352432
246 1 0.949769 0.11723 0.21782
202 1 0.985873 0.213767 0.345697
132 1 0.894076 0.0858193 0.39514
255 1 0.644438 0.349849 0.390571
108 1 0.663519 0.384278 0.233313
282 1 0.524067 0.399864 0.309963
242 1 0.907889 0.468242 0.272003
54 1 0.87442 0.296656 0.251317
280 1 0.986868 0.360324 0.34166
98 1 0.786089 0.37781 0.340729
339 2 0.679851 0.0958079 0.513085
164 1 0.618815 0.19503 0.482631
36 1 0.579257 0.0453918 0.586717
42 1 0.742053 0.0840653 0.401658
160 1 0.932385 0.0106002 0.5264
111 1 0.96898 0.163006 0.50341
279 1 0.804913 0.141263 0.546243
188 1 0.643373 0.430643 0.512315
266 1 0.509446 0.280311 0.434166
238 1 0.723865 0.298747 0.498027
314 2 0.747059 0.402591 0.57916
47 1 0.632569 0.302263 0.598692
123 1 0.773171 0.492023 0.45449
230 1 0.978784 0.311588 0.565559
203 1 0.922718 0.468963 0.433241
259 1 0.877704 0.295825 0.451746
237 1 0.832622 0.288608 0.599319
90 1 0.858207 0.438624 0.575369
307 2 0.706398 0.239899 0.703737
56 1 0.725225 0.0254261 0.768541
78 1 0.683279 0.138852 0.632916
323 2 0.605788 0.0571401 0.709235
121 1 0.500447 0.106265 0.778002
30 1 0.509634 0.197698 0.637525
166 1 0.619348 0.186825 0.754782
178 1 0.824731 0.0222247 0.658399
165 1 0.803204 0.172987 0.742896
62 1 0.937253 0.198936 0.667037
71 1 0.964269 0.0357921 0.71222
334 2 0.537886 0.483499 0.74522
65 1 0.574962 0.323334 0.728184
131 1 0.590091 0.455633 0.648128
129 1 0.737768 0.359998 0.698415
253 1 0.65385 0.474184 0.786633
312 2 0.92878 0.399566 0.670773
15 1 0.844358 0.467282 0.731786
11 1 0.879112 0.321472 0.754704
260 1 0.602319 0.22538 0.911419
172 1 0.628564 0.0881879 0.881128
291 2 0.715742 0.141945 0.805628
310 2 0.747145 0.0254408 0.886564
285 1 0.814778 0.145868 0.881693
122 1 0.868859 0.0121065 0.845371
53 1 0.829101 0.0241591 0.997234
138 1 0.998653 0.0740938 0.928022
286 1 0.914492 0.17533 0.979524
26 1 0.957018 0.173278 0.816193
118 1 0.724679 0.27365 0.828555
67 1 0.677921 0.42592 0.921816
104 1 0.727847 0.298075 0.970475
159 1 0.563263 0.33741 0.990761
152 1 0.53944 0.399679 0.859652
341 2 0.889107 0.261548 0.871075
245 1 0.972684 0.355742 0.885584
94 1 0.841772 0.410772 0.874676
77 1 0.670386 0.573769 0.0419736
95 1 0.501801 0.600407 0.109065
186 1 0.63288 0.675917 0.161689
217 1 0.630741 0.708677 0.0158433
297 2 0.708793 0.583939 0.174005
150 1 0.599757 0.521941 0.17562
360 2 0.8357 0.649482 0.149551
304 2 0.942847 0.545028 0.136853
201 1 0.812902 0.523995 0.13046
223 1 0.773788 0.70389 0.0393931
354 2 0.815325 0.5867 0.0206485
128 1 0.917925 0.639955 0.0136906
239 1 0.664864 0.861069 0.0813386
349 2 0.57734 0.963572 0.071187
313 2 0.562281 0.777204 0.103817
106 1 0.739113 0.896247 0.195538
135 1 0.775202 0.762242 0.174373
50 1 0.850983 0.941094 0.118678
61 1 0.902412 0.789133 0.0671803
265 1 0.604579 0.621228 0.298395
359 2 0.581797 0.724597 0.37953
75 1 0.646618 0.502922 0.382835
38 1 0.762986 0.654967 0.267202
330 2 0.950083 0.687377 0.394149
66 1 0.862639 0.583948 0.372971
274 1 0.835703 0.746643 0.353131
145 1 0.935962 0.63617 0.23988
48 1 0.761026 0.508375 0.271529
344 2 0.553212 0.967646 0.330251
225 1 0.666116 0.769424 0.278434
120 1 0.584833 0.908277 0.224879
63 1 0.693414 0.938367 0.333495
348 2 0.54983 0.777914 0.223129
331 2 0.781209 0.855027 0.306609
107 1 0.841518 0.986983 0.277296
320 2 0.927077 0.924056 0.340633
228 1 0.88941 0.835155 0.239867
141 1 0.984457 0.976025 0.223831
52 1 0.585455 0.605281 0.507831
64 1 0.715463 0.554826 0.578093
210 1 0.721252 0.634145 0.411363
325 2 0.647497 0.731084 0.504111
333 2 0.539557 0.510128 0.545473
139 1 0.744403 0.742501 0.578422
206 1 0.559948 0.725739 0.598889
257 1 0.971954 0.600091 0.512925
224 1 0.969822 0.734239 0.589736
277 1 0.851167 0.678226 0.491703
338 2 0.8454 0.552122 0.543805
57 1 0.729042 0.822778 0.432196
102 1 0.747159 0.983575 0.538994
317 2 0.74567 0.863064 0.556814
268 1 0.61476 0.882222 0.574741
140 1 0.61745 0.984979 0.459185
226 1 0.582303 0.83822 0.430699
171 1 0.830958 0.935391 0.417432
146 1 0.928445 0.7989 0.443187
342 2 0.988549 0.847244 0.535004
177 1 0.683974 0.644377 0.690498
321 2 0.564009 0.682783 0.748
249 1 0.520394 0.603585 0.675748
296 2 0.716307 0.509415 0.681911
68 1 0.834689 0.634061 0.650351
200 1 0.964959 0.545742 0.668274
335 2 0.774734 0.74904 0.731404
269 1 0.52114 0.826334 0.792994
328 2 0.60996 0.927847 0.696455
35 1 0.738912 0.903077 0.669731
144 1 0.63858 0.802155 0.700651
254 1 0.895932 0.847557 0.633067
329 2 0.90998 0.884124 0.756781
96 1 0.908374 0.751313 0.750359
153 1 0.564722 0.531548 0.936363
347 2 0.672099 0.569983 0.837144
170 1 0.534606 0.679209 0.887167
83 1 0.693544 0.690142 0.843345
267 1 0.831393 0.74124 0.888143
6 1 0.762982 0.541965 0.919356
180 1 0.821695 0.627556 0.805892
232 1 0.945953 0.52654 0.824995
161 1 0.978288 0.662979 0.862412
168 1 0.51895 0.978956 0.94936
1 1 0.668207 0.831332 0.907156
41 1 0.596081 0.955583 0.818328
215 1 0.66837 0.972956 0.964544
137 1 0.531855 0.847908 0.991291
204 1 0.93558 0.861496 0.884315
261 1 0.799362 0.885671 0.810021
283 1 0.801756 0.871092 0.973274
ITEM: TIMESTEP
10000
ITEM: NUMBER OF ATOMS
360
ITEM: BOX BOUNDS pp pp pp
0.0000000000000000e+00 6.6943295008216896e+00
0.0000000000000000e+00 6.6943295008216896e+00
0.0000000000000000e+00 6.6943295008216896e+00
ITEM: ATOMS id type xs ys zs
10 1 0.173236 0.204513 0.0806577
185 1 0.32618 0.476402 0.00862927
205 1 0.0480361 0.280755 0.153374
88 1 0.0428203 0.145783 0.200049
216 1 0.293993 0.469751 0.195859
174 1 0.322068 0.206206 0.159555
114 1 0.0714975 0.318584 0.00200458
27 1 0.426091 0.0921637 0.138341
163 1 0.288705 0.0640125 0.090278
21 1 0.154984 0.472399 0.0664642
76 1 0.146767 0.00710473 0.172549
207 1 0.239622 0.335845 0.121093
305 2 0.0622417 0.407317 0.119938
50 1 0.122566 0.0571733 0.0298431
58 1 0.390587 0.371052 0.120153
182 1 0.373081 0.168014 0.0186204
227 1 0.0195823 0.17743 0.0376247
334 2 0.456452 0.300023 0.0209132
148 1 0.413891 0.0156658 -0.00131284
264 1 0.175192 0.214836 0.261236
79 1 0.0687989 0.0520362 0.31438
318 2 0.231137 0.123523 0.193925
191 1 0.431443 0.21785 0.259875
40 1 0.213264 0.0418227 0.356595
262 1 0.34299 0.0664602 0.255282
92 1 0.494335 0.310585 0.364166
87 1 0.300818 0.208408 0.334873
308 2 0.41553 0.171672 0.38962
93 1 0.224621 0.435142 0.336024
136 1 0.142085 0.412846 0.212882
299 2 0.209479 0.307429 0.353144
105 1 0.421896 0.444294 0.304586
54 1 0.0748393 0.327959 0.326784
115 1 0.319875 0.334059 0.259612
7 1 0.00159714 0.199968 0.326589
44 1 0.468358 0.0475731 0.407698
219 1 0.362476 0.387964 0.572344
101 1 0.172973 0.0880743 0.54122
278 1 0.0870035 0.199652 0.586883
220 1 0.238401 0.248898 0.57429
211 1 0.475903 0.0342675 0.563498
233 1 0.403342 0.267854 0.488816
154 1 0.331652 0.113193 0.459722
319 2 0.290256 0.239001 0.463238
158 1 0.166997 0.19851 0.426462
45 1 0.247203 0.464716 0.492356
110 1 0.00179251 0.419998 0.448779
281 1 0.161012 0.329525 0.474553
266 1 0.463867 0.423688 0.474661
231 1 0.057929 0.0990985 0.452542
89 1 0.321538 0.360791 0.415326
157 1 0.0110678 0.25936 0.470226
315 2 0.376637 0.00424051 0.497251
30 1 0.502077 0.335973 0.600867
254 1 0.0134973 0.482559 0.580603
183 1 0.219681 0.153868 0.689315
70 1 0.106245 0.0367313 0.696565
179 1 0.484133 0.494736 0.626303
345 2 0.262135 0.445924 0.624054
272 1 0.414044 0.207727 0.742637
356 2 0.314343 0.0864268 0.739295
69 1 0.00836315 0.347647 0.619454
351 2 0.368266 0.285892 0.636824
275 1 0.43925 0.0646094 0.702029
357 2 0.178372 0.433405 0.731673
22 1 0.275497 0.313082 0.725442
218 1 0.105404 0.252711 0.722091
5 1 0.156673 0.372555 0.61398
232 1 0.0548715 0.418493 0.752069
11 1 0.00222516 0.151339 0.750633
65 1 0.411409 0.374436 0.719751
251 1 0.371491 0.157082 0.603142
221 1 0.313789 0.0152315 0.614021
222 1 0.495057 0.168805 0.937859
208 1 0.0989843 0.212456 0.894761
229 1 0.239361 0.131404 0.954054
130 1 0.33316 0.36744 0.854968
306 2 0.376801 0.23328 0.871537
263 1 0.359411 0.105785 0.863407
26 1 0.14568 0.0616695 0.835677
336 2 0.220941 0.42936 0.965766
162 1 0.0706839 0.453128 0.905564
309 2 0.219746 0.247329 0.972373
245 1 0.176404 0.361487 0.856656
100 1 0.481446 0.309798 0.86014
213 1 0.450293 0.408249 0.964027
196 1 0.247525 0.225365 0.847687
82 1 0.495466 0.0172092 0.834539
235 1 -0.00708405 0.324696 0.850237
241 1 0.32866 0.314548 0.990793
270 1 0.111052 0.636557 0.107885
167 1 0.256604 0.582909 0.0922789
234 1 0.147016 0.779526 0.0320102
358 2 0.151448 0.543586 0.197663
16 1 0.0300894 0.517331 0.168998
37 1 0.437302 0.519051 0.17546
187 1 0.347573 0.92319 0.136857
193 1 0.408167 0.659098 0.0477265
119 1 0.222107 0.916834 0.0440469
217 1 0.467009 0.798141 0.124823
80 1 -0.00787813 0.765971 0.157675
236 1 0.305387 0.771366 0.0922592
169 1 0.197708 0.847033 0.183487
141 1 0.0653318 0.900597 0.0948958
313 2 0.480721 0.772885 0.00147263
311 2 0.443597 0.532492 0.0482226
242 1 0.0155325 0.529447 0.0327338
332 2 0.122058 0.642339 0.335987
155 1 0.0927464 0.517178 0.314238
32 1 0.234681 0.582176 0.318355
29 1 0.0102018 0.638462 0.246572
301 2 0.451005 0.904512 0.368986
51 1 0.382588 0.655457 0.204942
252 1 0.469867 0.757858 0.277693
18 1 0.375604 0.667183 0.368185
355 2 0.376609 0.558292 0.291468
228 1 0.110583 0.779677 0.286227
168 1 0.455938 0.928077 0.249688
126 1 0.144132 0.925313 0.308566
103 1 0.242132 0.732952 0.374026
327 2 0.261568 0.978705 0.223467
348 2 0.224985 0.862018 0.375339
43 1 0.343096 0.96431 0.360455
95 1 0.327333 0.838484 0.266773
331 2 0.0248596 0.757865 0.371269
198 1 0.201893 0.695981 0.202177
333 2 0.473861 0.523812 0.405096
268 1 0.437513 0.906729 0.505956
249 1 0.431437 0.622798 0.510378
20 1 0.24157 0.640222 0.510059
206 1 0.418999 0.769713 0.58115
127 1 0.110865 0.528051 0.461362
12 1 0.330007 0.552614 0.597399
342 2 0.172328 0.698875 0.593003
322 2 0.348927 0.72067 0.480964
293 2 0.113997 0.984061 0.423399
250 1 0.352098 0.830472 0.42321
181 1 0.10102 0.704281 0.452799
214 1 0.360209 0.524426 0.41446
276 1 0.234442 0.943146 0.478456
243 1 0.0600345 0.950357 0.549608
151 1 0.112359 0.847772 0.448452
133 1 0.24039 0.783912 0.544256
340 2 0.326713 0.875452 0.595472
143 1 0.498366 0.785528 0.437764
59 1 0.178098 0.913863 0.622456
247 1 0.0695659 0.654991 0.694854
109 1 0.438857 0.909915 0.646789
289 2 0.190573 0.616405 0.69668
125 1 0.440747 0.638536 0.673055
244 1 0.322755 0.80863 0.701887
240 1 0.280199 0.672864 0.652794
33 1 0.184953 0.771364 0.709604
142 1 0.160341 0.907742 0.78867
350 2 0.429329 0.749429 0.762795
46 1 0.154434 0.539784 0.61502
99 1 0.275343 0.517493 0.740976
34 1 0.341188 0.953565 0.76615
173 1 0.01703 0.875527 0.688028
352 2 0.0577208 0.776322 0.78111
303 2 0.222277 0.996264 0.72666
28 1 0.120331 0.538041 0.794331
3 1 0.346547 0.651827 0.781584
124 1 0.0795764 0.776192 0.60037
295 2 0.398428 0.945456 0.885572
112 1 0.157767 0.588919 0.964429
184 1 0.0496908 0.661107 0.859591
149 1 0.190924 0.664937 0.828211
8 1 0.294693 0.79233 0.839853
137 1 0.430921 0.721299 0.897362
113 1 0.410121 0.582501 0.925183
147 1 0.285739 0.679326 0.949015
23 1 0.267225 0.533186 0.888311
290 2 0.242678 0.816268 0.965592
24 1 0.280361 0.978784 0.918647
156 1 0.36082 0.843388 0.968133
195 1 0.13824 0.788189 0.884007
53 1 0.0184902 0.87539 0.864457
4 1 0.118273 0.933763 0.943359
269 1 0.456008 0.865449 0.797864
61 1 -0.000279393 0.801236 0.996191
337 2 0.0568853 0.674699 1.00355
116 1 0.416186 0.501953 0.808114
189 1 0.54192 0.0822955 0.0432869
98 1 0.906437 0.22412 0.17863
310 2 0.729845 0.117676 0.0169184
60 1 0.817869 0.401237 0.139607
72 1 0.969482 0.0458454 0.109363
175 1 0.682124 0.123226 0.12956
246 1 0.833604 0.116218 0.129933
117 1 0.510858 0.224236 0.106707
354 2 0.914859 0.473964 0.135882
209 1 0.549273 0.370796 0.0706435
258 1 0.775532 0.250811 0.0866429
17 1 0.953732 0.387567 0.0470614
19 1 0.64005 0.270542 0.163618
48 1 0.651984 0.437372 0.186278
346 2 0.882017 0.106458 0.00635301
159 1 0.71589 0.400603 0.0373601
260 1 0.627303 0.239746 0.0100937
42 1 0.705494 0.138921 0.273068
55 1 0.628157 0.0305726 0.354293
2 1 0.516255 0.0579995 0.253841
316 2 0.977177 0.483715 0.342139
160 1 0.784704 0.0210655 0.326635
202 1 0.845198 0.186945 0.310978
190 1 0.5669 0.184289 0.338564
132 1 0.917536 0.0672473 0.262213
134 1 0.520451 0.379452 0.216433
97 1 0.774744 0.339333 0.255561
85 1 0.626836 0.344369 0.310161
255 1 0.743003 0.484191 0.297172
188 1 0.571057 0.479616 0.353372
201 1 0.961462 0.390964 0.22803
197 1 0.91537 0.330777 0.360589
294 2 0.548758 0.49601 0.225784
314 2 0.582894 0.165474 0.201973
326 2 0.772586 0.215255 0.201685
199 1 0.640171 0.0954224 0.485911
343 2 0.582872 0.242713 0.442162
307 2 0.742337 0.203855 0.540335
47 1 0.633309 0.262714 0.566202
14 1 0.503354 0.160521 0.48817
90 1 0.609007 0.428641 0.61043
259 1 0.731874 0.494222 0.494729
288 1 0.695367 0.219656 0.418103
302 2 0.968435 0.157852 0.506051
164 1 0.832873 0.10019 0.563351
279 1 0.840235 0.220746 0.466216
74 1 0.875946 0.369988 0.536045
296 2 0.734528 0.341497 0.531892
129 1 0.620761 0.386246 0.451443
324 2 0.782656 0.0993849 0.425839
111 1 0.907754 0.0789427 0.41455
320 2 0.96473 0.0243944 0.509346
81 1 0.774175 0.357859 0.404482
203 1 0.868138 0.470882 0.408927
56 1 0.701678 0.135334 0.650606
292 2 0.965414 0.275018 0.728544
166 1 0.57224 0.28761 0.737024
121 1 0.554892 0.140945 0.7715
122 1 0.969622 -0.000753686 0.771434
165 1 0.845701 0.140451 0.731239
300 2 0.764535 0.0327262 0.67339
230 1 0.917004 0.228187 0.610874
36 1 0.594424 0.004748 0.691385
6 1 0.709366 0.360949 0.77018
285 1 0.717181 0.205836 0.790166
78 1 0.779628 0.284882 0.665896
248 1 0.757207 0.431857 0.634828
237 1 0.903952 0.395313 0.7365
62 1 0.992685 0.0885405 0.615218
178 1 0.798992 0.00761245 0.785239
273 1 0.513541 0.191814 0.637597
253 1 0.53965 0.432069 0.778937
328 2 0.694534 0.069793 0.789565
323 2 0.581455 0.0934297 0.604008
138 1 1.00676 0.0392151 0.93787
172 1 0.630448 0.129466 0.921698
291 2 0.586053 0.0123623 0.940974
118 1 0.74355 0.282175 0.921321
341 2 0.888874 0.0543318 0.859785
39 1 0.953103 0.170598 0.893282
329 2 0.593739 0.242012 0.874003
286 1 0.802609 0.136875 0.902328
31 1 0.895718 0.268931 0.993594
104 1 0.815429 0.428413 0.893615
152 1 0.62101 0.366849 0.897583
13 1 0.707301 0.0125201 0.903793
94 1 0.864147 0.266263 0.818315
150 1 0.68649 0.670799 0.0977055
186 1 0.825099 0.734641 0.14962
107 1 0.903904 0.889192 0.0871417
108 1 0.575651 0.535254 0.0897509
297 2 0.800877 0.651379 0.0205725
38 1 0.762388 0.539486 0.143284
145 1 0.919627 0.615403 0.121339
91 1 0.53557 0.659078 0.156454
304 2 0.910968 0.739343 0.0605965
106 1 0.751172 0.846993 0.0864523
239 1 0.603364 0.808324 0.0595931
9 1 0.83738 0.507284 0.0255733
1 1 0.555173 0.659707 0.00205711
283 1 0.815501 1.01245 0.00136611
215 1 0.671519 0.989479 0.0676043
41 1 0.502643 0.940663 0.0942514
75 1 0.79168 0.658149 0.289049
282 1 0.653352 0.598428 0.239069
359 2 0.764665 0.714913 0.400334
226 1 0.642258 0.740268 0.366753
66 1 0.8893 0.521587 0.253805
330 2 0.905919 0.63625 0.312479
238 1 0.680945 0.606084 0.40151
265 1 0.635378 0.776948 0.20955
84 1 0.513589 0.605031 0.304759
256 1 0.563828 0.863204 0.325893
63 1 0.968188 0.931397 0.229758
225 1 0.770456 0.808149 0.277829
135 1 0.919267 0.764693 0.300787
339 2 0.85712 0.910225 0.32115
140 1 0.700465 0.910544 0.38706
349 2 0.552654 0.865819 0.197897
25 1 0.828538 0.953951 0.197252
360 2 0.866642 0.836797 0.203478
120 1 0.64053 0.982744 0.219129
52 1 0.564939 0.705271 0.558041
325 2 0.55767 0.67254 0.425082
131 1 0.563615 0.54546 0.489632
284 1 0.967755 0.930409 0.388727
15 1 0.853803 0.716194 0.577095
271 1 0.571384 0.948024 0.467011
338 2 0.654565 0.606199 0.55466
280 1 0.979505 0.584753 0.407494
274 1 0.937516 0.715432 0.443013
171 1 0.816637 0.968232 0.478583
224 1 0.794594 0.856073 0.566563
146 1 0.954244 0.839246 0.52776
210 1 0.705173 0.733841 0.511679
344 2 0.674025 0.866489 0.502572
102 1 0.702501 0.981029 0.575424
123 1 0.826224 0.612869 0.446974
200 1 0.873882 0.513071 0.562133
57 1 0.83241 0.823556 0.426818
257 1 0.97859 0.634085 0.571272
277 1 0.566265 0.855467 0.587954
177 1 0.60372 0.596633 0.66958
312 2 0.679675 0.505201 0.710504
180 1 0.7134 0.880948 0.689921
64 1 0.767013 0.5868 0.611935
71 1 0.865327 0.863851 0.766937
287 1 0.819984 0.662968 0.730584
96 1 0.68948 0.727251 0.655793
335 2 0.7951 0.786116 0.678012
170 1 0.541888 0.738922 0.716162
321 2 0.646622 0.78255 0.75608
83 1 0.669194 0.659516 0.785395
298 2 0.552786 0.876091 0.719639
68 1 0.895708 0.961463 0.621553
49 1 0.926469 0.554487 0.705456
73 1 0.798606 0.507838 0.757695
194 1 0.95161 0.733624 0.696543
153 1 0.586778 0.772936 0.862454
347 2 0.609432 0.614126 0.899914
223 1 0.823366 0.7727 0.968524
317 2 0.748454 0.892173 0.810704
176 1 0.558654 0.497341 0.936966
204 1 0.925065 0.751621 0.842813
353 2 0.935183 0.628618 0.800817
77 1 0.803893 0.60648 0.878554
192 1 0.765019 0.774208 0.823982
67 1 0.667326 0.505108 0.83353
35 1 0.687941 0.857738 0.938957
261 1 0.887241 0.916935 0.908721
139 1 0.627277 0.930795 0.813656
144 1 0.523964 0.895317 0.931112
128 1 0.94727 0.652705 0.963567
267 1 0.698409 0.699213 0.938211
161 1 0.938478 0.514533 0.858556
86 1 0.69092 0.563045 0.993986
212 1 0.527519 0.605972 0.807088
ITEM: TIMESTEP
20000
ITEM: NUMBER OF ATOMS
360
ITEM: BOX BOUNDS pp pp pp
0.0000000000000000e+00 6.6943295008216896e+00
0.0000000000000000e+00 6.6943295008216896e+00
0.0000000000000000e+00 6.6943295008216896e+00
ITEM: ATOMS id type xs ys zs
227 1 0.1525 0.128328 0.141925
327 2 0.272864 0.115594 0.103446
138 1 0.0467059 0.00713531 0.116047
98 1 0.114051 0.224829 0.005836
182 1 0.386289 0.13718 0.0300277
10 1 0.262995 0.274032 0.0839578
241 1 0.361543 0.406914 0.0170807
174 1 0.15309 0.376359 0.144904
305 2 0.104091 0.242833 0.16325
155 1 0.0119766 0.473174 0.147448
58 1 0.450119 0.48355 0.121294
299 2 0.259647 0.406452 0.076319
117 1 0.420139 0.299642 0.103528
115 1 0.308513 0.376076 0.193007
262 1 0.363934 0.14338 0.191262
16 1 0.0364517 0.34064 0.06891
72 1 0.00227311 0.153148 0.164738
148 1 0.355512 0.00261848 0.149776
136 1 0.145762 0.46837 0.0156925
24 1 0.281179 0.00194223 0.0114853
63 1 0.234167 0.0881166 0.265941
92 1 0.317921 0.326419 0.359255
158 1 0.0983284 0.189654 0.297572
333 2 0.478338 0.446648 0.395795
191 1 0.334537 0.18095 0.36617
134 1 0.416955 0.273541 0.25942
284 1 0.0618708 0.0425126 0.297108
163 1 0.23454 0.240286 0.221184
54 1 -0.00438786 0.435129 0.354709
76 1 0.372277 0.0407659 0.295028
205 1 0.0115774 0.31804 0.22626
93 1 0.160293 0.347902 0.307965
281 1 0.268352 0.475458 0.312473
14 1 0.49951 0.154347 0.408613
105 1 0.431611 0.433437 0.277635
85 1 0.472082 0.321038 0.39649
332 2 0.0805097 0.476503 0.27238
233 1 0.394017 0.223933 0.517353
157 1 0.0724346 0.179285 0.44634
79 1 0.0418553 0.0823726 0.565979
278 1 0.0235656 0.236918 0.583072
219 1 0.369706 0.446113 0.451353
43 1 0.183969 0.0745855 0.406514
87 1 0.283404 0.122395 0.521211
89 1 0.265657 0.278965 0.479049
351 2 0.36327 0.341333 0.565553
220 1 0.161887 0.184615 0.568219
129 1 0.49023 0.342947 0.551189
5 1 0.218792 0.431484 0.532126
254 1 0.00946481 0.454412 0.509526
308 2 0.365737 0.0727916 0.420399
318 2 0.166145 0.228286 0.382191
319 2 0.237513 0.406056 0.416024
264 1 0.121827 0.31467 0.469504
127 1 0.142123 0.486074 0.419302
357 2 0.199203 0.318301 0.567889
218 1 0.0269383 0.153364 0.726061
196 1 0.353658 0.0113886 0.761954
251 1 0.199329 0.137011 0.716308
100 1 0.362414 0.470041 0.615395
211 1 0.377997 0.11139 0.629006
292 2 0.0408067 0.421813 0.725169
306 2 0.208043 0.075761 0.606922
237 1 0.239298 0.384484 0.666432
121 1 0.358993 0.165591 0.775747
49 1 0.0894288 0.384377 0.612777
208 1 0.144423 0.268102 0.698867
65 1 0.376398 0.372672 0.720144
11 1 0.111111 0.000931165 0.689422
30 1 0.447698 0.255333 0.652232
22 1 0.292946 0.251525 0.644879
207 1 0.158039 0.406147 0.788426
315 2 0.488902 0.0339497 0.649301
275 1 0.48527 0.0803604 0.764191
346 2 0.106705 0.291214 0.808729
183 1 0.221517 0.0476861 0.847469
311 2 0.30775 0.406293 0.822271
114 1 0.0690576 0.352018 0.924037
39 1 0.22878 0.33593 0.949667
26 1 0.141202 0.192742 0.867829
329 2 0.435725 0.159346 0.880115
272 1 0.376008 0.0456948 0.908277
222 1 0.357199 0.259941 0.938379
309 2 0.273071 0.175594 0.87188
23 1 0.417616 0.385923 0.876352
185 1 0.263234 0.490717 0.901832
122 1 0.050541 0.0667266 0.863036
336 2 0.372519 0.283787 0.810914
229 1 0.239419 0.143365 0.982872
179 1 0.492999 0.240784 0.803781
119 1 0.130629 0.0544617 0.996082
245 1 0.242386 0.289867 0.80862
313 2 0.190759 0.619477 0.0918587
270 1 0.0461595 0.622235 0.100163
216 1 0.196712 0.513938 0.17666
193 1 0.305454 0.560706 0.0659373
217 1 0.416785 0.727896 0.0709573
167 1 0.263481 0.702927 0.138827
304 2 0.0230218 0.7308 0.0174992
295 2 0.3868 0.883214 0.141514
234 1 0.130517 0.912976 0.0372032
169 1 0.146015 0.767328 0.0549385
141 1 0.199353 0.995997 0.146188
355 2 0.332083 0.522015 0.210372
236 1 0.283913 0.878085 0.204717
187 1 0.297427 0.84206 0.0571711
37 1 0.419047 0.629976 0.187043
198 1 0.134411 0.674209 0.221426
103 1 0.159164 0.643209 0.371056
29 1 0.00914694 0.582998 0.259711
95 1 0.363908 0.87684 0.328959
32 1 0.293965 0.634388 0.263476
330 2 0.0294674 0.67747 0.339714
18 1 0.38581 0.723071 0.365424
84 1 0.411195 0.571847 0.341991
151 1 0.108233 0.809967 0.375065
228 1 0.136366 0.841613 0.181743
126 1 0.16749 0.941266 0.301622
51 1 0.222933 0.766643 0.301784
40 1 0.478704 1.00781 0.396154
252 1 0.398617 0.782905 0.214839
75 1 -0.0018659 0.759205 0.258094
331 2 0.023868 0.894553 0.336082
46 1 0.118329 0.57414 0.538507
214 1 0.200382 0.702195 0.510759
250 1 0.410618 0.841197 0.559454
20 1 0.0244808 0.719424 0.469091
342 2 0.268237 0.700457 0.397242
133 1 0.248942 0.828776 0.444528
88 1 0.290347 0.970762 0.444564
12 1 0.338518 0.692008 0.523267
266 1 0.279708 0.55889 0.448875
131 1 0.431221 0.573678 0.514559
322 2 0.420491 0.791143 0.449054
124 1 0.112488 0.820407 0.533545
68 1 0.067987 0.978998 0.436559
348 2 0.167832 0.918558 0.430307
154 1 0.171332 0.985522 0.53623
268 1 0.436793 1.00864 0.544303
352 2 0.0805939 0.687117 0.585253
243 1 0.0296739 0.933549 0.571227
276 1 0.255517 0.823924 0.591197
257 1 0.0301634 0.57634 0.417498
149 1 0.0588535 0.670887 0.73624
232 1 0.127587 0.540811 0.713765
99 1 0.304995 0.514172 0.743058
125 1 0.425284 0.619844 0.65596
289 2 0.328285 0.640731 0.731741
244 1 0.411632 0.845306 0.786343
45 1 0.257435 0.593458 0.619017
101 1 0.247266 0.859624 0.746734
337 2 0.041924 0.505526 0.621532
240 1 0.198296 0.71901 0.702113
70 1 0.0977822 0.840011 0.721726
303 2 0.1549 0.895718 0.620841
290 2 0.356246 0.881857 0.678913
350 2 0.446072 0.714321 0.779368
59 1 0.353932 0.754261 0.674628
34 1 0.487286 0.930225 0.696626
221 1 0.305046 0.974294 0.619332
293 2 0.236304 0.990378 0.728
212 1 0.45905 0.508546 0.781227
33 1 0.296005 0.745996 0.828644
147 1 0.138766 0.633144 0.966692
162 1 0.0925969 0.519756 0.87012
142 1 0.312181 0.918536 0.894424
4 1 0.0264713 0.818787 0.937358
113 1 0.27573 0.68021 0.968145
176 1 0.447669 0.516156 0.956991
116 1 0.210832 0.616366 0.836015
347 2 0.418517 0.648426 0.964653
112 1 0.127193 0.751799 0.842995
195 1 0.124317 0.92814 0.851536
3 1 0.366012 0.600033 0.856507