ITEM: TIMESTEP
0
ITEM: NUMBER OF ATOMS
360
ITEM: BOX BOUNDS pp pp pp
0.0000000000000000e+00 6.6943295008216896e+00
0.0000000000000000e+00 6.6943295008216896e+00
0.0000000000000000e+00 6.6943295008216896e+00
ITEM: ATOMS id type xs ys zs
246 1 0.183464 0.114121 0.122734
224 1 0.091343 0.246256 0.100387
142 1 0.0364982 0.0969541 0.0618091
280 1 0.296089 0.167608 0.0144104
144 1 0.435455 0.205829 0.0495304
236 1 0.336991 0.137332 0.162687
348 2 0.400985 0.0685225 0.0771949
239 1 0.497154 0.141162 0.181279
59 1 0.27415 0.00152028 0.039376
7 1 0.164927 0.403981 0.114007
168 1 0.00682184 0.380417 0.10511
203 1 0.344195 0.331396 0.0374973
250 1 0.251059 0.274176 0.146221
64 1 0.282405 0.492668 0.0405296
124 1 0.445889 0.411718 0.10868
133 1 0.306679 0.447013 0.188912
137 1 0.407263 0.287988 0.191195
198 1 0.183691 0.0877047 0.360561
252 1 0.142209 0.198589 0.246151
127 1 0.0846677 0.0391647 0.236018
166 1 0.0275303 0.119704 0.353321
332 2 0.248075 0.0828923 0.256707
175 1 0.28795 0.205839 0.301974
324 2 0.422993 0.19724 0.297576
248 1 0.379243 0.0787549 0.305853
217 1 0.182306 0.345129 0.280965
102 1 0.083992 0.462203 0.237842
251 1 0.0293088 0.320166 0.248313
298 2 0.205313 0.482574 0.264226
72 1 0.0926682 0.254743 0.387909
253 1 0.101675 0.421175 0.388656
309 2 0.313381 0.327747 0.260242
259 1 0.305914 0.446719 0.352771
118 1 0.470205 0.435534 0.27715
195 1 0.398698 0.323275 0.351687
209 1 0.124767 0.1546 0.507431
199 1 0.01423 0.0261512 0.478377
327 2 0.209589 0.202043 0.421037
235 1 0.016288 0.241954 0.588562
276 1 0.178307 0.000884054 0.491733
225 1 0.422424 0.14404 0.567497
150 1 0.321708 0.0618427 0.489801
158 1 0.274548 0.216823 0.549556
172 1 0.389293 0.188174 0.422323
288 1 0.481124 0.0404321 0.431207
8 1 0.214636 0.450748 0.492155
79 1 0.137392 0.324639 0.542112
94 1 0.233264 0.323663 0.420234
73 1 0.0531743 0.469181 0.525409
270 1 0.360584 0.493186 0.583039
274 1 0.365859 0.351343 0.496604
77 1 0.494962 0.293919 0.549277
97 1 0.435662 0.496916 0.419093
52 1 0.156638 0.22192 0.661012
78 1 0.0759105 0.0551205 0.623145
244 1 0.131981 0.0912887 0.791309
130 1 0.221673 0.0848439 0.628249
83 1 0.314997 0.0194229 0.748864
330 2 0.353175 0.0516167 0.630203
109 1 0.314738 0.193498 0.696578
112 1 0.467521 0.248778 0.711852
188 1 0.444808 0.0930934 0.747029
318 2 0.105364 0.49427 0.775867
202 1 0.22012 0.43756 0.770142
48 1 0.104461 0.359295 0.684651
346 2 0.213686 0.299039 0.744342
41 1 0.188886 0.484393 0.635381
266 1 0.363207 0.341227 0.789028
342 2 0.336187 0.442931 0.721297
134 1 0.454286 0.396027 0.661671
243 1 0.280987 0.369648 0.634514
315 2 0.381188 0.286945 0.626124
254 1 0.458254 0.488397 0.782253
226 1 0.144054 0.141892 0.964895
178 1 0.0361081 0.239561 0.948195
69 1 0.00867087 0.0923402 0.902876
213 1 0.0924851 0.243511 0.80247
159 1 0.252375 0.219372 0.830846
249 1 0.258595 0.0631024 0.882487
185 1 0.414998 0.0859769 0.929955
299 2 0.387415 0.172958 0.823687
354 2 0.207747 0.492703 0.891346
151 1 0.115628 0.382186 0.85834
228 1 0.186685 0.300741 0.974039
214 1 0.119352 0.489283 0.994746
337 2 0.0704143 0.357035 0.99762
184 1 0.420647 0.491523 0.949462
338 2 0.446912 0.390133 0.87439
232 1 0.304912 0.408411 0.908298
17 1 0.378537 0.253915 0.920766
191 1 0.49261 0.332821 0.979469
220 1 0.126854 0.679516 0.101626
155 1 0.188958 0.556751 0.150199
16 1 0.0210589 0.549373 0.104454
317 2 0.0894485 0.611063 0.00106127
331 2 0.298837 0.615155 0.118336
121 1 0.412106 0.550621 0.135676
91 1 0.397167 0.714989 0.172857
126 1 0.253642 0.739342 0.0259646
204 1 0.0180418 0.861035 0.132058
32 1 0.125102 0.964433 0.0957035
285 1 0.187504 0.823043 0.149735
310 2 0.223966 0.875382 0.03388
237 1 0.110368 0.828512 0.0176345
146 1 0.336657 0.844642 0.105603
205 1 0.413464 0.971155 0.158837
328 2 0.436841 0.83708 0.186795
197 1 0.18376 0.554498 0.369771
165 1 0.0891641 0.628094 0.264579
100 1 0.226218 0.698673 0.37012
261 1 0.239548 0.684503 0.218072
2 1 0.0791217 0.726474 0.394317
360 2 0.344329 0.701263 0.322472
60 1 0.498535 0.600809 0.290363
1 1 0.321961 0.574335 0.283117
340 2 0.106136 0.90861 0.22207
196 1 0.0901657 0.954476 0.36644
95 1 0.173889 0.835506 0.308211
343 2 0.111002 0.753452 0.230246
218 1 0.0132305 0.831824 0.294228
103 1 0.317647 0.820427 0.261648
53 1 0.283057 0.961094 0.357037
49 1 0.439909 0.925852 0.31147
187 1 0.469724 0.767147 0.307921
89 1 0.251111 0.966398 0.20536
278 1 0.142563 0.59173 0.505596
167 1 0.0944035 0.742942 0.549288
57 1 0.0275308 0.565012 0.406736
40 1 0.256584 0.6978 0.527181
81 1 0.306597 0.565763 0.455007
71 1 0.415469 0.682094 0.426157
325 2 0.258706 0.583623 0.592588
104 1 0.179191 0.846821 0.464135
65 1 0.073201 0.902636 0.567811
351 2 0.388957 0.948065 0.427914
21 1 0.330434 0.814889 0.418574
206 1 0.379406 0.806416 0.567018
131 1 0.481897 0.853612 0.442721
138 1 0.431786 0.952127 0.543715
282 1 0.0335722 0.539876 0.670449
54 1 0.164196 0.661494 0.654154
35 1 0.0530385 0.674853 0.762131
334 2 0.184659 0.743815 0.758567
9 1 0.187663 0.603445 0.794905
161 1 0.468589 0.640048 0.751382
345 2 0.453725 0.527245 0.662739
154 1 0.312309 0.57161 0.701464
176 1 0.317148 0.732427 0.707482
56 1 0.415377 0.644165 0.600193
120 1 0.052162 0.823151 0.709744
3 1 0.14546 0.949603 0.709792
125 1 0.216003 0.807357 0.640428
92 1 0.286568 0.870029 0.761373
182 1 0.421847 0.909703 0.694097
264 1 0.285168 0.937253 0.606554
90 1 0.0611475 0.564111 0.879589
128 1 0.120149 0.700004 0.90758
68 1 0.212047 0.606368 0.96418
11 1 0.278796 0.712198 0.866967
207 1 0.312177 0.549478 0.848465
107 1 0.361208 0.628388 0.996078
350 2 0.388022 0.649309 0.863175
58 1 0.151625 0.971825 0.937301
36 1 0.152972 0.845895 0.835987
292 2 0.216994 0.957114 0.821698
233 1 0.0297395 0.943838 0.842265
229 1 0.404615 0.771919 0.972653
88 1 0.422142 0.781826 0.814595
240 1 0.293981 0.862359 0.922771
110 1 0.407153 0.952222 0.841567
174 1 0.407891 0.937906 0.998546
62 1 0.667689 0.162589 0.124745
61 1 0.533069 0.0509401 0.0555039
242 1 0.693565 0.057789 0.0083125
265 1 0.619004 0.0161565 0.177569
286 1 0.58561 0.176765 0.00420652
341 2 0.902435 0.120838 0.106483
241 1 0.789051 0.0596517 0.145351
208 1 0.804661 0.172719 0.018402
123 1 0.947966 0.0178897 0.16657
29 1 0.940221 0.241734 0.0698098
25 1 0.873041 0.0231696 0.0239391
313 2 0.744454 0.397583 0.157108
186 1 0.588754 0.418879 0.0555703
143 1 0.70518 0.299493 0.0569647
43 1 0.558529 0.282877 0.124981
194 1 0.875273 0.471745 0.156252
311 2 0.825682 0.278989 0.107024
114 1 0.830209 0.386488 0.0412753
333 2 0.913799 0.47513 0.037811
170 1 0.690366 0.126805 0.283353
74 1 0.545354 0.139967 0.331032
336 2 0.603192 0.211265 0.229536
294 2 0.522445 0.00760574 0.262561
335 2 0.729825 0.00794809 0.259122
152 1 0.824838 0.195106 0.206197
80 1 0.874242 0.0792656 0.285464
314 2 0.805735 0.158071 0.360314
24 1 0.919658 0.245583 0.350607
179 1 0.75781 0.0383336 0.387793
230 1 0.983993 0.185358 0.215334
148 1 0.70849 0.294927 0.221679
149 1 0.537081 0.296316 0.288023
344 2 0.667669 0.372063 0.336263
284 1 0.619038 0.487348 0.336758
227 1 0.642844 0.259384 0.396431
212 1 0.599604 0.409211 0.207489
145 1 0.786592 0.315331 0.365191
46 1 0.879599 0.336777 0.221057
13 1 0.932471 0.419417 0.347742
169 1 0.775862 0.439099 0.286464
189 1 0.551997 0.154064 0.486299
6 1 0.745877 0.171509 0.473779
306 2 0.631684 0.246093 0.526833
302 2 0.507896 0.249725 0.406494
39 1 0.652759 0.139785 0.596138
349 2 0.64886 0.122459 0.407722
12 1 0.638582 0.0180441 0.50056
305 2 0.992403 0.196706 0.465029
271 1 0.785379 0.0287028 0.555458
115 1 0.894664 0.123757 0.450832
63 1 0.917748 0.104465 0.597462
359 2 0.808189 0.163497 0.580445
347 2 0.61787 0.490877 0.460318
289 2 0.741177 0.320243 0.480009
106 1 0.640535 0.374214 0.547631
157 1 0.743583 0.447704 0.445484
262 1 0.509685 0.475485 0.545241
82 1 0.542835 0.374428 0.413574
139 1 0.738296 0.263055 0.591769
117 1 0.904163 0.482585 0.503209
18 1 0.871516 0.262952 0.523622
295 2 0.865379 0.373682 0.463645
281 1 0.790574 0.413584 0.588787
210 1 0.988451 0.336543 0.46148
75 1 0.605896 0.121428 0.735906
297 2 0.538823 0.189461 0.624814
267 1 0.529451 0.0436523 0.609657
93 1 0.672731 0.00265856 0.666785
307 2 0.608026 0.245201 0.793765
22 1 0.859851 0.230324 0.687162
156 1 0.7529 0.119014 0.722693
290 2 0.867794 0.0840206 0.717566
135 1 0.977009 0.140466 0.747107
277 1 0.597382 0.457217 0.675339
322 2 0.706245 0.393671 0.676668
70 1 0.607635 0.281446 0.663054
31 1 0.730778 0.264267 0.771782
55 1 0.546054 0.356941 0.795852
211 1 0.830903 0.380638 0.729552
293 2 0.980172 0.288043 0.700902
171 1 0.940776 0.374828 0.606767
163 1 0.987381 0.425732 0.771911
42 1 0.681321 0.163543 0.879031
85 1 0.569896 0.0482634 0.89161
47 1 0.508206 0.194429 0.863034
15 1 0.838408 0.173513 0.846431
356 2 0.77749 0.083927 0.914107
291 2 0.920528 0.168858 0.955394
190 1 0.876925 0.0205542 0.852421
177 1 0.69443 0.407473 0.811247
23 1 0.628717 0.299892 0.923433
84 1 0.707234 0.437205 0.964192
87 1 0.569697 0.463602 0.903262
162 1 0.974828 0.426685 0.94099
27 1 0.836313 0.435745 0.875542
173 1 0.786759 0.304558 0.917088
308 2 0.927653 0.305777 0.959735
122 1 0.943635 0.281481 0.832842
30 1 0.71122 0.514867 0.170371
136 1 0.679183 0.673842 0.108583
221 1 0.567464 0.560346 0.14644
50 1 0.5613 0.717977 0.197438
326 2 0.503597 0.53702 0.0412192
116 1 0.629926 0.568634 0.0100649
98 1 0.505529 0.672864 0.0585446
352 2 0.88967 0.589811 0.120997
28 1 0.991833 0.743673 0.0108282
193 1 0.854884 0.708265 0.11108
160 1 0.789471 0.555028 0.0517691
238 1 0.991487 0.712049 0.189475
45 1 0.613998 0.925636 0.027169
329 2 0.640531 0.801268 0.121443
113 1 0.748238 0.825431 0.0548184
316 2 0.729384 0.963141 0.0769951
4 1 0.747111 0.910859 0.184227
76 1 0.503715 0.826001 0.0826713
66 1 0.875529 0.886374 0.104166
132 1 0.663939 0.614728 0.272859
129 1 0.609954 0.742382 0.368185
119 1 0.818054 0.628304 0.239996
96 1 0.849922 0.559488 0.383344
34 1 0.950139 0.553226 0.254814
10 1 0.935767 0.688102 0.348934
216 1 0.767595 0.728688 0.369856
19 1 0.625979 0.985178 0.341054
183 1 0.579919 0.873481 0.213701
319 2 0.564034 0.86174 0.335746
200 1 0.701945 0.766571 0.234179
247 1 0.748001 0.87767 0.330408
312 2 0.889855 0.828642 0.349656
287 1 0.857927 0.782352 0.240852
219 1 0.88736 0.928525 0.261419
358 2 0.988363 0.999292 0.295258
272 1 0.707752 0.734813 0.524087
257 1 0.547951 0.733467 0.524884
256 1 0.553885 0.600254 0.436411
108 1 0.684247 0.529742 0.563829
263 1 0.696238 0.612741 0.428251
323 2 0.805136 0.553937 0.523887
231 1 0.984682 0.619644 0.546191
245 1 0.857947 0.666399 0.491449
303 2 0.969217 0.723327 0.466724
283 1 0.737562 0.877732 0.576482
258 1 0.645698 0.865575 0.448146
99 1 0.572206 0.874282 0.585705
44 1 0.923929 0.946439 0.569048
353 2 0.76484 0.936246 0.463146
86 1 0.842778 0.817543 0.471746
339 2 0.822792 0.753766 0.580163
14 1 0.95192 0.788098 0.596963
101 1 0.884155 0.953138 0.409951
5 1 0.991898 0.845843 0.45563
141 1 0.719426 0.684894 0.780845
279 1 0.735124 0.519636 0.716383
181 1 0.607795 0.635393 0.650867
301 2 0.694648 0.74711 0.650921
268 1 0.606784 0.566079 0.795346
164 1 0.926867 0.656155 0.680071
321 2 0.826213 0.610601 0.738086
105 1 0.768368 0.630982 0.627017
180 1 0.877551 0.510996 0.65979
33 1 0.55461 0.966993 0.759183
201 1 0.661303 0.846579 0.736627
37 1 0.51512 0.764084 0.673823
357 2 0.528888 0.843787 0.773008
296 2 0.948784 0.767667 0.754187
51 1 0.81505 0.959961 0.704357
111 1 0.96257 0.983045 0.716741
147 1 0.819675 0.779109 0.700439
273 1 0.579414 0.73257 0.814213
304 2 0.639074 0.66039 0.920488
300 2 0.511615 0.742079 0.91301
260 1 0.511738 0.618829 0.909302
20 1 0.73626 0.562274 0.880688
234 1 0.766072 0.683091 0.971235
26 1 0.921802 0.590349 0.96746
67 1 0.863476 0.685408 0.833101
320 2 0.983604 0.673694 0.896344
38 1 0.921486 0.55221 0.810499
140 1 0.715913 0.811074 0.87596
355 2 0.624535 0.921868 0.85404
275 1 0.520837 0.8689 0.911406
223 1 0.71719 0.99841 0.817317
215 1 0.625835 0.767798 0.996339
153 1 0.873929 0.859574 0.813018
255 1 0.990428 0.924597 0.989907
222 1 0.7711 0.939823 0.937592
192 1 0.874456 0.820033 0.958652
269 1 0.999676 0.799547 0.873707
ITEM: TIMESTEP
1000000
ITEM: NUMBER OF ATOMS
360
ITEM: BOX BOUNDS pp pp pp
0.0000000000000000e+00 6.6943295008216896e+00
0.0000000000000000e+00 6.6943295008216896e+00
0.0000000000000000e+00 6.6943295008216896e+00
ITEM: ATOMS id type xs ys zs
7 1 0.0910304 0.12532 0.103413
287 1 0.233149 0.0138703 0.0800322
175 1 0.272759 0.328675 0.164649
221 1 0.483505 0.490123 0.130097
342 2 0.0746244 0.0307866 0.0131734
236 1 0.226421 0.173117 0.174963
348 2 0.304477 0.128382 0.0929053
137 1 0.431068 0.192775 0.168084
354 2 0.444846 0.126063 0.051257
89 1 0.357856 0.248621 0.0521103
23 1 0.149012 0.426351 0.133888
285 1 0.121563 0.279625 0.0940878
226 1 0.217435 0.173516 0.023164
217 1 0.031956 0.404809 0.0266234
266 1 0.357028 0.410892 0.0530675
254 1 0.446168 0.347595 0.205632
59 1 0.339888 0.0642285 0.198368
249 1 0.222636 0.347568 0.0059967
126 1 0.397152 0.00255135 0.062037
118 1 0.00479961 0.374042 0.170205
166 1 0.0979368 0.131282 0.260295
178 1 0.206853 0.206406 0.39037
127 1 0.202159 0.00671392 0.237946
203 1 0.463143 0.281565 0.353026
106 1 0.331154 0.409988 0.299939
50 1 0.46169 0.508341 0.279964
225 1 0.325129 0.228292 0.278843
131 1 0.462299 0.122876 0.30071
195 1 0.305321 0.0805853 0.34966
82 1 0.0141418 0.394178 0.328118
280 1 0.107013 0.28582 0.259355
262 1 0.166542 0.441219 0.289331
298 2 0.223244 0.331215 0.305426
309 2 0.0818423 0.156059 0.394184
150 1 0.100503 0.213154 0.505879
252 1 0.049225 0.0686203 0.528133
198 1 0.19304 0.0869929 0.576201
310 2 0.260573 0.117338 0.469371
274 1 0.258172 0.22495 0.538845
158 1 0.356817 0.102398 0.566116
21 1 0.371325 0.190444 0.431448
74 1 0.465634 0.0497907 0.441505
149 1 0.394134 0.442596 0.430386
279 1 0.28063 0.330325 0.428659
48 1 0.140602 0.450281 0.565917
108 1 0.493354 0.443502 0.556058
302 2 0.187493 0.331998 0.531449
134 1 0.240535 0.473757 0.431769
79 1 0.127126 0.343802 0.415776
94 1 0.422968 0.314849 0.50099
9 1 0.296679 0.415107 0.560107
209 1 0.0685977 0.499932 0.428118
172 1 0.496418 0.179224 0.532998
51 1 0.49995 0.0307133 0.602677
199 1 0.158814 0.0453916 0.406089
32 1 0.142952 0.213449 0.770426
125 1 0.15707 0.0515787 0.790679
24 1 0.0348047 0.166832 0.67818
327 2 0.154535 0.199901 0.632819
17 1 0.26612 0.139911 0.694116
83 1 0.466563 0.0310229 0.767359
297 2 0.386509 0.0885867 0.69583
188 1 0.369454 0.240934 0.64786
77 1 0.210433 0.309428 0.659286
15 1 0.0909379 0.35665 0.765927
52 1 0.228577 0.449006 0.7281
301 2 0.12205 0.4863 0.793673
122 1 0.058323 0.327214 0.610076
124 1 0.381853 0.366168 0.74593
303 2 0.404377 0.365185 0.622534
292 2 0.225773 0.0153645 0.676227
282 1 0.0373585 0.479467 0.700625
111 1 0.0804565 -0.00140589 0.660181
92 1 0.317645 0.0128253 0.798946
36 1 0.235065 0.145428 0.878639
237 1 0.0762644 0.119647 0.911039
142 1 0.00733926 0.228278 0.995022
112 1 0.354273 0.0993808 0.957852
299 2 0.302317 0.233813 0.932468
357 2 0.463822 0.0887855 0.88371
130 1 0.376447 0.177947 0.813297
190 1 0.256387 0.31045 0.826261
143 1 0.483537 0.19907 0.948753
213 1 0.141371 0.272403 0.909184
193 1 0.137847 0.438456 0.911998
133 1 0.394397 0.327171 0.910866
244 1 0.29529 0.452583 0.905489
232 1 0.472528 0.495523 0.965374
121 1 0.152042 0.589639 0.153861
64 1 0.231776 0.50656 0.0260365
295 2 0.236099 0.766411 0.0334656
220 1 0.115129 0.716826 0.0370138
229 1 0.461233 0.855621 0.00380161
128 1 0.298676 0.883052 0.065467
247 1 0.0719994 0.964089 0.139238
68 1 0.38244 0.768292 0.126628
331 2 0.362635 0.544582 0.0764717
155 1 0.287305 0.654408 0.0991857
91 1 0.454426 0.635166 0.0484064
269 1 0.140779 0.863074 0.0263105
311 2 0.0560058 0.499265 0.101236
103 1 0.198024 0.761056 0.153045
332 2 0.195246 0.903947 0.140284
101 1 0.0325753 0.81482 0.118786
184 1 0.296656 0.514983 0.18125
202 1 0.0888035 0.562435 -0.00439502
257 1 0.408539 0.632892 0.192363
49 1 0.451769 0.906897 0.187928
29 1 0.00700888 0.627496 0.104407
100 1 0.166031 0.588555 0.303185
2 1 0.0408051 0.65831 0.378319
196 1 0.173654 0.743061 0.332251
259 1 0.0365977 0.517906 0.226909
345 2 0.290025 0.720121 0.390992
264 1 0.330081 0.748839 0.272241
1 1 0.324134 0.569929 0.332846
296 2 0.422692 0.660456 0.317671
187 1 0.480016 0.760358 0.252319
261 1 0.0648231 0.701389 0.220925
65 1 0.239829 0.89628 0.35587
358 2 0.0764695 0.993172 0.279654
218 1 0.128687 0.859565 0.252143
238 1 0.0730662 0.916161 0.392505
305 2 0.0538516 0.799576 0.345796
146 1 0.302861 0.891004 0.219573
248 1 0.394128 0.924561 0.35614
360 2 0.258246 0.628788 0.22883
294 2 0.41856 1.00179 0.266549
104 1 0.194588 0.644837 0.456621
210 1 0.0628491 0.605259 0.563528
138 1 0.277971 0.821619 0.477992
272 1 0.423478 0.912341 0.501335
40 1 0.411621 0.752119 0.407144
276 1 0.34444 0.639485 0.507232
60 1 0.463209 0.576555 0.43451
81 1 0.425868 0.763397 0.552602
5 1 0.0158214 0.923131 0.534471
353 2 0.153862 0.978066 0.513587
231 1 0.186656 0.715773 0.599236
167 1 0.113333 0.7899 0.489554
278 1 0.241652 0.560439 0.60076
53 1 0.288616 0.979473 0.486231
351 2 0.376647 0.513584 0.53219
161 1 0.483957 0.620278 0.59066
120 1 0.174639 0.887856 0.596489
90 1 0.147272 0.590357 0.719997
320 2 0.0814492 0.703054 0.671713
151 1 0.215977 0.735309 0.754538
330 2 0.421781 0.628919 0.751966
73 1 0.35262 0.675346 0.655036
182 1 0.488828 0.761335 0.691402
110 1 0.352419 0.968086 0.646994
154 1 0.379355 0.514547 0.660145
159 1 0.290604 0.584375 0.77873
35 1 0.0763084 0.825057 0.716163
240 1 0.207681 0.909821 0.744779
337 2 0.0862528 0.93684 0.790239
243 1 0.402444 0.873478 0.762934
346 2 0.447544 0.865058 0.627989
56 1 0.304255 0.817654 0.645226
228 1 0.177433 0.580919 0.872146
270 1 0.22219 0.72162 0.911518
168 1 0.024418 0.544837 0.848571
204 1 0.0624274 0.692651 0.802959
343 2 0.0326288 0.662218 0.925901
260 1 0.423048 0.49526 0.817672
207 1 0.342315 0.600476 0.949077
88 1 0.475486 0.638404 0.881402
176 1 0.358435 0.744021 0.980292
141 1 0.353368 0.72808 0.819478
304 2 0.0351376 0.811936 0.983463
54 1 0.118155 0.836676 0.86858
58 1 0.0323808 0.972669 0.901839
317 2 0.2953 0.982567 0.971235
191 1 0.418064 0.969271 0.909829
8 1 0.284225 0.861045 0.885935
328 2 0.401003 0.823604 0.884595
293 2 0.209949 0.625981 0.990521
255 1 0.176215 0.987332 0.924351
239 1 0.675617 0.0723764 0.0880308
185 1 0.554317 0.192137 0.0896261
42 1 0.70203 0.214139 0.114093
174 1 0.491419 0.0592844 0.155028
114 1 0.951901 0.0862829 0.0354055
200 1 0.847533 0.177319 0.0788597
214 1 0.644692 0.31565 0.00621819
250 1 0.968707 0.213918 0.171107
318 2 0.857675 0.385098 0.158676
43 1 0.620703 0.346374 0.174125
169 1 0.757671 0.383837 0.0838146
173 1 0.618835 0.46921 0.0622
284 1 0.493421 0.345247 0.0526824
66 1 0.893975 0.315694 0.0648204
69 1 0.82007 0.00468517 0.0717652
4 1 0.811876 0.0885748 0.200975
312 2 0.655279 0.0523437 0.351672
170 1 0.598874 0.138677 0.235848
212 1 0.72615 0.192182 0.344905
315 2 0.545991 0.38304 0.28224
319 2 0.899989 0.0350586 0.299967
145 1 0.88142 0.1558 0.312472
179 1 0.77745 0.0404495 0.358864
148 1 0.817932 0.270026 0.207027
246 1 1.00009 0.0597491 0.363313
308 2 0.682164 0.26205 0.248812
347 2 0.530863 0.250604 0.23883
45 1 0.609808 0.490227 0.231597
96 1 0.72785 0.382799 0.28256
227 1 0.61334 0.310839 0.349832
152 1 0.864116 0.322762 0.362526
16 1 0.892258 0.453044 0.256441
325 2 0.939634 0.295364 0.258761
13 1 1.00012 0.244364 0.360148
230 1 0.964099 0.0597676 0.199071
97 1 0.56516 0.445327 0.390276
271 1 0.586451 0.159755 0.406832
258 1 0.711882 0.104463 0.483145
350 2 0.582375 0.0864816 0.516464
6 1 0.638401 0.193315 0.585766
117 1 0.97371 0.345236 0.475574
251 1 0.890239 0.0697078 0.490175
72 1 0.961178 0.187896 0.543317
62 1 0.829372 0.21333 0.446923
46 1 0.725378 0.325701 0.540447
157 1 0.573052 0.329692 0.491054
208 1 0.731179 0.452544 0.433197
253 1 0.900295 0.476787 0.417207
164 1 0.974641 0.472947 0.566569
12 1 0.813585 0.462765 0.569391
344 2 0.668049 0.256532 0.451355
333 2 0.843063 0.379277 0.4748
245 1 0.870304 0.295866 0.584294
75 1 0.719829 0.122962 0.717764
324 2 0.589995 0.048245 0.725358
22 1 0.508037 0.156404 0.687863
78 1 0.991798 0.0826283 0.791173
314 2 0.793597 0.0145184 0.622545
223 1 0.842394 0.0315401 0.752547
234 1 0.891914 0.188593 0.727647
63 1 0.932818 0.0244664 0.629956
288 1 0.657395 0.0307083 0.608493
41 1 0.930439 0.342765 0.713113
322 2 0.617876 0.228476 0.711559
55 1 0.630672 0.348142 0.757643
189 1 0.522369 0.314589 0.634443
181 1 0.52415 0.457756 0.705191
277 1 0.78698 0.422909 0.723765
171 1 0.749954 0.265616 0.685662
338 2 0.903916 0.474141 0.678701
31 1 0.809076 0.136408 0.601973
281 1 0.652327 0.436817 0.617589
70 1 0.585424 0.1247 0.832081
47 1 0.659563 0.159286 0.971315
135 1 0.736207 0.0549504 0.862704
136 1 0.871939 0.429422 0.970244
177 1 0.778791 0.255071 0.951139
242 1 0.903523 0.145886 0.903454
11 1 0.53449 0.0471264 0.989153
162 1 0.990419 0.394532 0.876112
356 2 0.782973 0.0987169 0.984952
307 2 0.914265 0.300108 0.923068
39 1 0.701068 0.219904 0.828275
116 1 0.721541 0.411983 0.904129
336 2 0.592327 0.25316 0.896446
144 1 0.542058 0.376058 0.895941
163 1 0.8315 0.318307 0.820818
84 1 0.996169 0.249268 0.829809
38 1 0.884349 0.490705 0.805469
109 1 0.509588 0.263642 0.795402
341 2 0.809945 0.151705 0.815866
98 1 0.675149 0.72783 0.11846
76 1 0.561892 0.611805 0.156585
300 2 0.698293 0.592209 0.107707
107 1 0.533494 0.756979 0.110405
291 2 0.904593 0.958377 0.151098
34 1 0.837318 0.644878 0.0963075
329 2 0.931956 0.72498 0.1556
192 1 0.77403 0.508526 0.172175
113 1 0.720258 0.87976 0.124442
28 1 0.762297 0.540836 0.00470887
165 1 0.875286 0.835642 0.138446
205 1 0.572562 0.931905 0.092209
25 1 0.957065 0.922115 0.0204292
153 1 0.91679 0.729901 -0.00234218
224 1 0.92334 0.493608 0.0993991
186 1 0.610813 0.628263 0.0113619
87 1 0.623571 0.814507 -0.01458
119 1 0.700859 0.62782 0.239765
306 2 0.650479 0.536749 0.345216
71 1 0.552513 0.629803 0.318292
335 2 0.605402 0.713738 0.228389
194 1 0.908281 0.60735 0.222426
321 2 0.766536 0.679616 0.342448
102 1 0.784249 0.537466 0.321245
313 2 0.968302 0.548193 0.334095
132 1 0.792202 0.74217 0.225908
216 1 0.809032 0.806965 0.372521
61 1 0.683256 0.906781 0.368922
263 1 0.664844 0.748112 0.339465
355 2 0.7187 0.840269 0.272509
183 1 0.598716 0.863529 0.242843
18 1 0.815368 0.929831 0.258647
123 1 0.975863 0.912924 0.244825
115 1 0.937591 0.766008 0.274164
241 1 0.5501 0.98914 0.312375
265 1 0.682737 1.00153 0.227721
95 1 0.887569 0.648174 0.376729
235 1 0.90885 0.936917 0.394425
206 1 0.538449 0.844164 0.386853
256 1 0.594776 0.546553 0.498453
139 1 0.557599 0.696346 0.457758
10 1 0.711431 0.629424 0.441971
339 2 0.814584 0.700811 0.483708
352 2 0.808011 0.546786 0.457476
57 1 0.886655 0.609568 0.558853
14 1 0.98687 0.742222 0.589379
105 1 0.721429 0.580064 0.586664
19 1 0.603928 0.965047 0.473798
27 1 0.698454 0.786138 0.484752
3 1 0.558198 0.844535 0.543214
99 1 0.865427 0.816977 0.532621
289 2 0.886755 0.948764 0.536795
80 1 0.764061 0.946395 0.491331
86 1 0.967105 0.769933 0.435299
334 2 0.97628 0.568467 0.476018
326 2 0.688658 0.659587 0.71364
147 1 0.553038 0.617734 0.746767
268 1 0.673032 0.529205 0.733044
323 2 0.600974 0.568528 0.630734
233 1 0.96693 0.930328 0.759297
359 2 0.966384 0.860615 0.649287
201 1 0.787013 0.7335 0.632784
180 1 0.832252 0.579096 0.698506
67 1 0.781074 0.723919 0.807365
290 2 0.756437 0.819702 0.730816
33 1 0.691133 0.87 0.624074
140 1 0.635815 0.780917 0.741081
267 1 0.547494 0.914208 0.68986
93 1 0.70227 0.95055 0.746436
283 1 0.916477 0.774996 0.718192
44 1 0.835119 0.906656 0.657307
26 1 0.978512 0.62714 0.697364
129 1 0.62492 0.705774 0.604348
211 1 0.63879 0.684171 0.860906
20 1 0.589356 0.528366 0.881542
160 1 0.760649 0.575982 0.85839
340 2 0.543597 0.727772 0.941459
286 1 0.68892 0.950482 0.974933
197 1 0.913386 0.662198 0.848465
30 1 0.936656 0.569464 0.969946
273 1 0.740434 0.704533 0.981083
349 2 0.849118 0.769839 0.900984
37 1 0.527934 0.824657 0.854446
316 2 0.836193 0.635257 0.952426
215 1 0.701325 0.842971 0.86769
275 1 0.588175 0.970352 0.858028
222 1 0.962064 0.818998 0.875133
85 1 0.836183 0.87289 0.821264
219 1 0.814636 0.863756 0.984218
156 1 0.876337 0.999758 0.916904
ITEM: TIMESTEP
2000000
ITEM: NUMBER OF ATOMS
360
ITEM: BOX BOUNDS pp pp pp
0.0000000000000000e+00 6.6943295008216896e+00
0.0000000000000000e+00 6.6943295008216896e+00
0.0000000000000000e+00 6.6943295008216896e+00
ITEM: ATOMS id type xs ys zs
117 1 0.0624784 0.102377 0.135897
269 1 0.176543 0.0460923 0.0508789
226 1 0.222707 0.173385 0.138467
126 1 0.117042 0.218557 0.0170771
89 1 0.257473 0.295252 0.0454147
49 1 0.34206 0.0411634 0.170141
185 1 0.3711 0.183835 0.0827078
342 2 0.298034 0.0779898 0.0592925
11 1 0.487556 0.0611226 0.10504
347 2 0.322568 0.251677 0.169536
82 1 0.157054 0.420842 0.186493
318 2 0.156448 0.282028 0.124708
285 1 0.0612777 0.349018 0.0762906
320 2 0.218611 0.440295 0.0700051
225 1 0.304104 0.38748 0.16137
137 1 0.434658 0.311693 0.111782
221 1 0.471525 0.472228 0.102322
291 2 0.216595 0.0465385 0.188324
280 1 0.061795 0.252104 0.215857
106 1 0.35675 0.420261 0.0151714
114 1 0.00267414 0.0487039 0.00247013
236 1 0.139801 0.128724 0.269022
203 1 0.481341 0.430726 0.344305
59 1 0.447462 0.15534 0.233786
327 2 0.100179 0.243224 0.333592
13 1 0.296668 0.163475 0.269464
149 1 0.322423 0.423768 0.316877
293 2 0.417019 0.416383 0.219936
310 2 0.398521 0.197256 0.345672
74 1 0.413645 0.0197302 0.298702
79 1 0.209572 0.288511 0.258524
245 1 0.0825729 0.36989 0.320045
21 1 0.382903 0.297613 0.272692
317 2 0.0128902 0.042343 0.243766
172 1 0.493044 0.113816 0.384646
199 1 0.0149058 0.151195 0.352262
127 1 0.257508 0.0124181 0.307449
111 1 0.229864 0.109844 0.538265
178 1 0.0702089 0.136148 0.511393
124 1 0.358841 0.317629 0.57907
227 1 0.477339 0.359478 0.495578
157 1 0.35846 0.287651 0.424304
195 1 0.323946 0.104772 0.407145
248 1 0.375676 0.0834831 0.556053
303 2 0.31532 0.204746 0.504505
294 2 0.430587 0.0237389 0.437366
120 1 0.473233 0.209192 0.519276
279 1 0.348485 0.445999 0.458637
134 1 0.216638 0.34957 0.40757
122 1 0.185633 0.262437 0.55187
209 1 0.0988747 0.436075 0.466946
164 1 0.0666391 0.286191 0.455219
298 2 0.216292 0.476906 0.438211
9 1 0.219915 0.417129 0.559853
274 1 0.213669 0.202634 0.39041
166 1 0.148191 0.0498204 0.414004
17 1 0.155242 0.158819 0.668608
290 2 0.459484 0.0150494 0.62446
260 1 0.353976 0.377483 0.739601
233 1 0.236422 0.11082 0.800581
198 1 0.155213 -0.00362151 0.628823
297 2 0.259089 0.0763291 0.671376
158 1 0.322591 0.184729 0.65977
83 1 0.37673 0.0723355 0.729908
325 2 0.409972 0.256215 0.70326
181 1 0.39626 0.461849 0.615304
48 1 0.0912737 0.392593 0.629155
52 1 0.184989 0.456283 0.734507
190 1 0.226463 0.291637 0.727414
321 2 0.108411 0.275932 0.684714
242 1 0.481307 0.285157 0.794099
150 1 0.0125685 0.251916 0.610599
189 1 0.494192 0.138476 0.669363
90 1 0.0407328 0.493191 0.740239
15 1 0.0618865 0.179481 0.785584
125 1 0.0112759 0.0839768 0.659705
255 1 0.116273 0.102791 0.918299
337 2 0.0152844 0.173642 0.952225
331 2 0.478331 0.477343 0.975578
130 1 0.275698 0.151946 0.958247
330 2 0.345597 0.083665 0.858573
112 1 0.398264 0.0691861 0.983258
143 1 0.454818 0.142415 0.853505
133 1 0.440455 0.418172 0.86412
254 1 0.284166 0.35813 0.879652
92 1 0.180428 0.252465 0.876515
175 1 0.160935 0.382229 0.955851
249 1 0.075582 0.339989 0.807769
109 1 0.340401 0.22921 0.813972
77 1 0.402147 0.283009 0.957955
202 1 0.175352 0.577876 0.159131
146 1 0.460011 0.925584 0.176118
259 1 0.0962248 0.504536 0.0490676
153 1 0.0226015 0.629311 0.123654
262 1 0.331774 0.521907 0.124765
184 1 0.420871 0.668355 0.132787
103 1 0.282389 0.689809 0.0578514
220 1 0.156596 0.7966 0.0658058
128 1 0.0745249 0.939117 0.107633
246 1 0.220883 0.932134 0.157594
296 2 0.19518 0.917986 0.0276893
232 1 0.130032 0.653891 0.011989
54 1 0.338515 0.933585 0.0550596
345 2 0.280824 0.820163 0.0972219
88 1 0.420562 0.809835 0.0619475
219 1 0.0170048 0.784009 0.154674
121 1 0.159234 0.723619 0.194095
332 2 0.131308 0.849854 0.184577
264 1 0.34663 0.802704 0.20082
352 2 0.0362979 0.521688 0.19057
228 1 0.242052 0.534767 -0.00326944
319 2 0.184126 0.658136 0.318988
194 1 0.0636169 0.635804 0.274613
187 1 0.443177 0.848502 0.320092
348 2 0.317843 0.931396 0.239381
313 2 0.266387 0.517081 0.235271
257 1 0.463819 0.700762 0.292259
1 1 0.279321 0.563746 0.365347
43 1 0.417503 0.540493 0.247943
40 1 0.296811 0.669177 0.228652
123 1 0.0185763 0.978134 0.368267
165 1 0.119228 0.974172 0.251145
12 1 0.00952092 0.508689 0.364775
115 1 0.0692063 0.82986 0.316931
218 1 0.221002 0.848251 0.283869
354 2 0.409619 0.530584 0.376436
65 1 0.312444 0.729935 0.367188
118 1 0.158983 0.504765 0.309403
253 1 0.139771 0.588474 0.434181
138 1 0.0877842 0.698827 0.548318
196 1 0.280227 0.768012 0.511714
334 2 0.25002 0.65859 0.443547
360 2 0.400222 0.585043 0.572072
276 1 0.26396 0.563734 0.530124
81 1 0.375916 0.639925 0.461365
289 2 0.379545 0.831154 0.57193
238 1 0.138189 0.84952 0.576499
110 1 0.276557 0.930773 0.563517
101 1 0.166617 0.897966 0.43546
53 1 0.336498 0.887176 0.425417
139 1 0.442929 0.786631 0.463436
314 2 0.263216 0.992182 0.447896
188 1 0.448802 0.932567 0.534051
57 1 0.00933092 0.678329 0.41388
80 1 0.0176954 0.973861 0.541304
94 1 0.482252 0.517952 0.489198
2 1 0.0251714 0.826783 0.46761
104 1 0.16118 0.749798 0.408165
193 1 0.172777 0.605955 0.762289
261 1 0.124845 0.544675 0.616952
301 2 0.401762 0.501645 0.765694
295 2 0.197231 0.732189 0.776823
182 1 0.460104 0.587074 0.690843
154 1 0.302775 0.567881 0.6963
278 1 0.223445 0.686578 0.632214
141 1 0.330341 0.69142 0.77762
36 1 0.0983763 1.00347 0.788448
22 1 0.258737 0.966806 0.734538
51 1 0.399608 0.917194 0.686092
350 2 0.110955 0.889229 0.708921
151 1 0.099118 0.759706 0.703325
56 1 0.272111 0.822342 0.687405
346 2 0.415435 0.786637 0.722169
272 1 0.496268 0.80032 0.614012
14 1 0.00915537 0.62867 0.692942
73 1 0.367952 0.710303 0.627343
305 2 -0.000309862 0.794648 0.612195
64 1 0.128637 0.531753 0.892763
197 1 0.0838469 0.698417 0.849099
287 1 0.228289 0.674341 0.901831
243 1 0.342884 0.840151 0.815425
270 1 0.367097 0.731368 0.928432
266 1 0.306384 0.537988 0.851294
159 1 0.471301 0.57622 0.835085