ITEM: TIMESTEP
0
ITEM: NUMBER OF ATOMS
360
ITEM: BOX BOUNDS pp pp pp
0.0000000000000000e+00 6.6943295008216896e+00
0.0000000000000000e+00 6.6943295008216896e+00
0.0000000000000000e+00 6.6943295008216896e+00
ITEM: ATOMS id type xs ys zs
138 1 0.193794 0.0834793 0.0860433
107 1 0.0925288 0.199363 0.0597038
141 1 0.0804252 0.0256281 0.155654
205 1 0.245862 0.222572 0.0234727
262 1 0.459051 0.231017 0.106695
35 1 0.345812 0.122627 0.0817442
295 2 0.48062 0.105748 0.111941
89 1 0.26288 0.196862 0.182086
185 1 0.0449357 0.467878 0.0518596
132 1 0.173756 0.365725 0.0105793
114 1 0.221848 0.42586 0.144999
92 1 0.0934569 0.340853 0.14344
72 1 0.346301 0.313266 0.136597
333 2 0.435215 0.386177 0.0294762
115 1 0.483805 0.383677 0.154821
111 1 0.105861 0.0637935 0.310479
331 2 0.196965 0.204578 0.307301
284 1 0.10831 0.184719 0.209491
87 1 0.0708491 0.203512 0.370148
313 2 0.182155 0.0750128 0.207344
233 1 0.251657 0.0943021 0.352426
95 1 0.409401 0.0942636 0.359634
162 1 0.352636 0.235933 0.291434
283 1 0.445315 0.121381 0.224673
14 1 0.303106 0.0495762 0.208795
266 1 0.191645 0.478868 0.30453
337 2 0.066421 0.492516 0.341697
174 1 0.0500454 0.37267 0.333913
2 1 0.208165 0.32106 0.252555
319 2 0.437006 0.272435 0.219554
260 1 0.472722 0.323959 0.326296
19 1 0.486688 0.478719 0.295655
264 1 0.333574 0.403553 0.26502
157 1 0.103988 0.180775 0.533457
191 1 0.113723 0.0366473 0.457856
308 2 0.159512 0.0666851 0.585878
243 1 0.251926 0.120392 0.506958
65 1 0.413838 0.108612 0.504048
355 2 0.413681 0.218295 0.402962
305 2 0.296066 0.200849 0.41148
49 1 0.186866 0.317669 0.580462
127 1 0.145631 0.403774 0.438328
279 1 0.0108179 0.498952 0.462973
62 1 0.028791 0.317084 0.476151
287 1 0.0901055 0.429747 0.575327
278 1 0.193658 0.25667 0.420037
99 1 0.332371 0.262192 0.525187
93 1 0.286283 0.425151 0.537753
219 1 0.469783 0.304323 0.483022
289 2 0.39566 0.405642 0.489056
131 1 0.340693 0.331717 0.403266
26 1 0.161445 0.160175 0.672668
318 2 0.017151 0.134894 0.769544
288 1 0.00464675 0.142882 0.644493
220 1 0.0921756 0.028305 0.721212
245 1 0.248639 0.0462817 0.789105
357 2 0.199941 0.1733 0.79659
241 1 0.343715 0.185183 0.76837
207 1 0.308837 0.0957477 0.64574
40 1 0.45237 0.0553441 0.68762
152 1 0.448691 0.203585 0.631931
311 2 0.272841 0.226187 0.6183
208 1 0.00679248 0.285791 0.622002
184 1 0.214235 0.284705 0.745429
292 2 0.125248 0.367981 0.692926
237 1 0.071225 0.25331 0.762906
213 1 0.359499 0.309947 0.666889
193 1 0.488363 0.282938 0.774104
45 1 0.269845 0.419752 0.703413
64 1 0.464987 0.445158 0.751098
177 1 0.416407 0.436415 0.600516
324 2 0.165795 0.130392 0.965252
39 1 0.093175 0.102291 0.849893
61 1 0.0227936 0.0707086 0.984303
229 1 0.157473 0.0106913 0.958581
11 1 0.302154 0.143687 0.904676
10 1 0.446785 0.0920457 0.984196
227 1 0.418959 0.0255447 0.843914
273 1 0.470692 0.160685 0.857438
119 1 0.167431 0.252516 0.889164
242 1 0.222767 0.428527 0.856115
247 1 0.0703068 0.389138 0.835584
235 1 0.0342887 0.323782 0.9676
346 2 0.291916 0.288427 0.905074
212 1 0.404376 0.252311 0.975281
130 1 0.355545 0.334285 0.816121
3 1 0.378281 0.49009 0.906115
209 1 0.324137 0.381128 0.990435
216 1 0.192231 0.646604 0.0501958
126 1 0.136521 0.707802 0.184594
113 1 0.239513 0.506248 0.00104728
294 2 0.0596251 0.610092 0.111875
327 2 0.156469 0.516854 0.0929249
270 1 0.0123402 0.726924 0.103003
16 1 0.224212 0.576721 0.191007
176 1 0.341216 0.710259 0.0765311
301 2 0.297717 0.550663 0.0942757
54 1 0.41902 0.515074 0.137431
281 1 0.448986 0.713162 0.185466
187 1 0.049003 0.925528 0.0211788
76 1 0.229861 0.940707 0.114533
156 1 0.0761112 0.857707 0.154256
348 2 0.101704 0.778652 0.0342429
252 1 0.219317 0.807633 0.0760561
85 1 0.412031 0.969292 0.0926808
350 2 0.410593 0.810455 0.109248
51 1 0.113787 0.62433 0.308635
297 2 0.00907221 0.677399 0.223542
100 1 0.075735 0.510011 0.204643
84 1 0.252087 0.628134 0.38323
80 1 0.297325 0.699883 0.219125
167 1 0.385509 0.584268 0.276103
236 1 0.387633 0.714413 0.353414
103 1 0.344297 0.50987 0.394726
188 1 0.238772 0.771635 0.354589
151 1 0.162246 0.921384 0.276977
29 1 0.0829508 0.78146 0.308438
320 2 0.222944 0.818391 0.218499
360 2 0.00177263 0.871694 0.35945
330 2 0.197741 0.984703 0.388666
120 1 0.485304 0.836102 0.285938
338 2 0.347851 0.829038 0.339649
169 1 0.348883 0.861342 0.200988
171 1 0.439924 0.980894 0.260873
109 1 0.306287 0.94162 0.339049
352 2 0.0467669 0.721635 0.531426
298 2 0.0359031 0.623004 0.436001
46 1 0.160446 0.548391 0.471432
340 2 0.247861 0.663567 0.505965
43 1 0.125179 0.716039 0.43269
20 1 0.158525 0.690519 0.583963
90 1 0.0627385 0.584671 0.590695
133 1 0.324763 0.568894 0.530316
18 1 0.378816 0.721686 0.518492
125 1 0.46578 0.599898 0.561526
343 2 0.443178 0.577205 0.420514
268 1 0.201473 0.825257 0.534174
70 1 0.0903322 0.951532 0.590753
250 1 0.243996 0.972011 0.498316
225 1 0.119004 0.882318 0.433063
339 2 0.492697 0.889886 0.405478
179 1 0.364451 0.85166 0.454763
211 1 0.381937 0.970279 0.57759
168 1 0.491661 0.880715 0.533869
323 2 0.380169 0.973406 0.451696
232 1 0.0572814 0.704598 0.705017
149 1 0.0844575 0.536475 0.731704
342 2 0.181849 0.622494 0.686113
116 1 0.243914 0.558537 0.780955
28 1 0.198828 0.527893 0.619122
214 1 0.365201 0.55577 0.672654
359 2 0.434787 0.675 0.667121
52 1 0.294904 0.700816 0.669681
309 2 0.289104 0.690898 0.791992
315 2 0.131209 0.820979 0.638597
121 1 0.234581 0.823567 0.740016
221 1 0.23503 0.977205 0.65486
122 1 0.0823148 0.854189 0.748136
142 1 0.414172 0.761355 0.755148
277 1 0.367894 0.933433 0.73144
88 1 0.331777 0.8363 0.616395
206 1 0.494903 0.865077 0.701035
293 2 0.112296 0.689293 0.935556
147 1 0.0256107 0.649421 0.838433
23 1 0.127237 0.547791 0.91135
267 1 0.0129754 0.60046 0.999518
244 1 0.173711 0.710228 0.823248
117 1 0.283208 0.61945 0.913561
170 1 0.393483 0.614347 0.809637
34 1 0.372674 0.730014 0.906463
134 1 0.41339 0.603644 0.991507
101 1 0.101565 0.812894 0.903457
351 2 0.20094 0.894132 0.982801
33 1 0.241926 0.777716 0.945306
50 1 0.00650569 0.937107 0.864137
306 2 0.141817 0.948455 0.840174
234 1 0.305508 0.997907 0.984946
196 1 0.265902 0.918042 0.867178
269 1 0.428044 0.87376 0.853766
183 1 0.34452 0.857084 0.992619
24 1 0.480574 0.781529 0.996233
41 1 0.566353 0.00905412 0.0939991
148 1 0.592938 0.167054 0.095072
6 1 0.723401 0.244659 0.0223633
231 1 0.703864 0.0794426 0.0419499
286 1 0.721857 0.144559 0.172872
27 1 0.691341 0.0039379 0.172157
310 2 0.824867 0.0818292 0.101747
25 1 0.84734 0.219373 0.122063
228 1 0.958223 0.0964001 0.112949
291 2 0.969743 0.200702 0.0296731
17 1 0.711614 0.3082 0.182383
299 2 0.644334 0.454651 0.0877282
172 1 0.603858 0.347772 0.0400255
136 1 0.519496 0.496939 0.0363828
60 1 0.749778 0.393531 0.0466145
63 1 0.89963 0.361578 0.0930838
48 1 0.832929 0.469887 0.167628
258 1 0.887197 0.499815 0.0151856
332 2 0.736806 0.0793701 0.275584
256 1 0.596578 0.117367 0.242763
30 1 0.669925 0.217264 0.32581
22 1 0.532366 0.196224 0.364828
31 1 0.66975 0.0788294 0.377807
246 1 0.813714 0.183665 0.292391
4 1 0.950636 0.11372 0.291688
160 1 0.832078 0.0517261 0.364585
158 1 0.927587 0.246164 0.366508
139 1 0.846316 0.0333745 0.208884
163 1 0.970241 0.241574 0.206928
58 1 0.63711 0.474402 0.20787
255 1 0.627379 0.372123 0.320343
334 2 0.746512 0.426214 0.247165
55 1 0.560825 0.258737 0.222032
336 2 0.633671 0.487368 0.384338
203 1 0.756098 0.479065 0.36122
66 1 0.906978 0.396671 0.375619
7 1 0.966195 0.398701 0.215892
307 2 0.876642 0.477613 0.281182
254 1 0.767671 0.326676 0.389078
97 1 0.847237 0.322397 0.259062
140 1 0.553918 0.101151 0.54561
190 1 0.639827 0.216138 0.462104
165 1 0.713731 0.135747 0.565763
210 1 0.507875 0.0056367 0.420984
329 2 0.556225 0.236132 0.562443
68 1 0.959552 0.118786 0.441886
202 1 0.788345 0.17357 0.439017
47 1 0.860024 0.171474 0.576075
57 1 0.808767 0.0330852 0.503971
328 2 0.961075 0.217354 0.522667
276 1 0.954848 0.0317767 0.562339
271 1 0.730452 0.2993 0.573399
253 1 0.623709 0.359786 0.492697
37 1 0.512066 0.461141 0.456698
326 2 0.944042 0.405251 0.521998
344 2 0.809444 0.40977 0.489999
199 1 0.874675 0.303028 0.50258
81 1 0.846947 0.450754 0.593729
118 1 0.602332 0.194807 0.679218
94 1 0.707448 0.0740912 0.783828
36 1 0.616916 0.0279298 0.663664
345 2 0.564478 0.0918262 0.768399
296 2 0.77068 0.166508 0.68891
173 1 0.84987 0.0637752 0.679504
78 1 0.905712 0.204878 0.752446
317 2 0.824047 0.0980154 0.795129
104 1 0.609312 0.397239 0.78802
82 1 0.686935 0.425161 0.646781
137 1 0.546091 0.336908 0.637124
249 1 0.551406 0.486078 0.631126
102 1 0.726873 0.284851 0.716818
74 1 0.865353 0.316027 0.66127
21 1 0.827103 0.425845 0.752185
248 1 0.980527 0.407875 0.72243
239 1 0.601022 0.0663081 0.906023
314 2 0.7025 0.148561 0.925939
182 1 0.574326 0.236053 0.954188
222 1 0.637701 0.203197 0.816862
218 1 0.985732 0.194903 0.898677
164 1 0.799365 0.193887 0.858588
265 1 0.767967 0.041906 0.914693
251 1 0.921637 0.0621636 0.839639
186 1 0.870271 0.129822 0.98578
302 2 0.708213 0.45612 0.812372
9 1 0.711179 0.317428 0.882789
1 1 0.664043 0.455587 0.944601
144 1 0.509772 0.381604 0.916302
98 1 0.819432 0.435656 0.909704
285 1 0.929459 0.332884 0.844163
230 1 0.870891 0.281427 0.979408
354 2 0.950739 0.412612 0.942597
161 1 0.952019 0.488592 0.843986
192 1 0.584536 0.71183 0.0926156
105 1 0.559541 0.600816 0.184233
178 1 0.694809 0.569095 0.110695
223 1 0.723511 0.722351 0.0167766
153 1 0.727452 0.730776 0.18299
53 1 0.851182 0.665866 0.0715153
257 1 0.957524 0.576076 0.165171
303 2 0.85872 0.710685 0.199884
263 1 0.540723 0.862387 0.127565
226 1 0.703227 0.852153 0.104192
349 2 0.600081 0.813286 0.0147289
166 1 0.800569 0.964933 0.0613936
145 1 0.94355 0.938836 0.125678
155 1 0.859196 0.813829 0.0864336
86 1 0.679299 0.636131 0.314057
32 1 0.520335 0.631271 0.322091
280 1 0.956014 0.552274 0.329396
181 1 0.959251 0.702714 0.340668
201 1 0.815995 0.601413 0.249233
282 1 0.827233 0.65894 0.396955
198 1 0.600605 0.750164 0.255323
44 1 0.589666 0.977107 0.275416
91 1 0.748977 0.788953 0.325726
150 1 0.612572 0.853873 0.374471
42 1 0.725117 0.948183 0.323341
358 2 0.661204 0.875005 0.228536
146 1 0.876038 0.869986 0.363055
135 1 0.993682 0.94544 0.262098
123 1 0.958187 0.793529 0.227376
215 1 0.817145 0.865877 0.216362
325 2 0.729166 0.594257 0.420273
15 1 0.581581 0.597464 0.4547
238 1 0.682264 0.725401 0.452714
108 1 0.51694 0.741614 0.461527
129 1 0.70152 0.503257 0.517966
259 1 0.795853 0.614374 0.575963
38 1 0.942957 0.651354 0.505401
316 2 0.948274 0.544477 0.569025
197 1 0.869969 0.518143 0.466119
322 2 0.604829 0.829664 0.508269
341 2 0.736638 0.987095 0.584052
175 1 0.641974 0.985663 0.503688
274 1 0.730549 0.872611 0.466482
75 1 0.976966 0.80339 0.4624
154 1 0.991945 0.977267 0.415611
5 1 0.826131 0.752148 0.512874
224 1 0.883946 0.905224 0.533404
71 1 0.531804 0.605426 0.742467
194 1 0.613033 0.617432 0.609089
96 1 0.654454 0.550314 0.762384
321 2 0.759788 0.533416 0.683853
159 1 0.762795 0.655778 0.709077
110 1 0.893032 0.725674 0.650935
69 1 0.920101 0.566045 0.710195
335 2 0.870283 0.672008 0.794227
59 1 0.580351 0.759715 0.761773
312 2 0.747271 0.980417 0.707099
180 1 0.686559 0.885396 0.764879
204 1 0.705803 0.755217 0.613053
200 1 0.632084 0.89014 0.62857
143 1 0.523547 0.75162 0.61272
275 1 0.547909 0.958163 0.798702
347 2 0.50713 0.990815 0.601673
290 2 0.914891 0.838481 0.713649
73 1 0.813792 0.799048 0.782465
195 1 0.958153 0.957072 0.710112
124 1 0.999696 0.826807 0.617898
79 1 0.786944 0.883433 0.637583
217 1 0.513597 0.688283 0.889689
8 1 0.529204 0.529756 0.866675
353 2 0.692946 0.558579 0.881234
13 1 0.614061 0.603207 0.978715
261 1 0.70429 0.720859 0.85631
77 1 0.846963 0.713536 0.920314
83 1 0.818468 0.560553 0.819716
304 2 0.903862 0.607516 0.907897
67 1 0.775469 0.591006 0.964534
106 1 0.571567 0.829801 0.896861
356 2 0.681436 0.945972 0.870288
272 1 0.506785 0.949988 0.966248
189 1 0.655586 0.939201 0.986737
240 1 0.960597 0.785383 0.816797
112 1 0.893628 0.951056 0.953849
128 1 0.76158 0.838157 0.936729
12 1 0.983261 0.787189 0.974836
300 2 0.885186 0.845339 0.894288
56 1 0.82053 0.948044 0.818795
ITEM: TIMESTEP
50000
ITEM: NUMBER OF ATOMS
360
ITEM: BOX BOUNDS pp pp pp
0.0000000000000000e+00 6.6943295008216896e+00
0.0000000000000000e+00 6.6943295008216896e+00
0.0000000000000000e+00 6.6943295008216896e+00
ITEM: ATOMS id type xs ys zs
354 2 0.107024 0.182128 0.152769
228 1 0.0973625 0.0453222 0.0796113
4 1 0.212358 0.172574 0.0749982
14 1 0.384235 0.0384273 0.157457
148 1 0.473471 0.354919 0.15076
220 1 0.432172 0.181056 0.112733
331 2 0.313927 0.149512 0.136995
113 1 0.466829 0.451694 0.0334201
237 1 0.17554 0.309818 0.0809453
162 1 0.331783 0.257164 0.0482244
99 1 0.342919 0.286915 0.194129
98 1 0.0954282 0.451653 0.120785
115 1 0.328355 0.409003 0.0789374
278 1 0.211627 0.0795681 0.191246
209 1 0.00697566 0.316673 0.120332
107 1 0.080157 0.19253 0.0119913
198 1 0.229226 0.447255 0.400663
254 1 0.0376983 0.26194 0.254679
114 1 0.0347101 0.102037 0.216532
191 1 0.175494 0.118873 0.342726
177 1 0.183426 0.241239 0.220989
85 1 0.306641 0.171382 0.27455
42 1 0.429591 0.0687537 0.370988
350 2 0.411298 0.104807 0.261637
171 1 0.301192 0.326846 0.330602
132 1 0.0953264 0.428694 0.30823
44 1 0.299738 0.0221525 0.303739
28 1 0.159005 0.301364 0.386433
325 2 0.433395 0.325836 0.376323
109 1 0.469117 0.233813 0.288142
255 1 0.40922 0.432111 0.250284
131 1 0.234323 0.398777 0.202985
68 1 0.0315524 0.165 0.381561
346 2 0.16181 0.504762 0.223064
355 2 0.259076 0.2164 0.380347
298 2 0.123862 0.350422 0.200195
224 1 0.0655445 0.0749797 0.505586
31 1 0.388796 0.214506 0.412403
276 1 0.168469 0.18479 0.4813
70 1 0.202569 0.0492965 0.561915
55 1 0.278489 0.299288 0.479481
210 1 0.443326 0.198007 0.564554
179 1 0.287173 0.110244 0.437683
338 2 0.319952 0.190873 0.526753
188 1 0.397478 0.0461529 0.529643
292 2 0.308368 0.395314 0.569327
43 1 0.493204 0.497657 0.550601
62 1 0.0217494 0.231371 0.516418
290 2 0.159198 0.40766 0.499558
87 1 0.0318308 0.403987 0.489716
137 1 0.414884 0.343915 0.513013
152 1 0.385417 0.443767 0.412091
247 1 0.142828 0.32406 0.588735
295 2 0.203711 0.192306 0.61462
119 1 0.207467 0.0755607 0.713866
165 1 0.0785571 0.204738 0.668384
95 1 0.381505 0.420991 0.659133
208 1 0.30467 0.277053 0.622496
26 1 0.337133 0.132522 0.657023
296 2 0.393651 0.124254 0.772183
61 1 0.215655 0.22752 0.736073
111 1 0.0574914 0.048159 0.645054
205 1 0.245665 0.379564 0.726856
149 1 0.0870885 0.397009 0.711492
340 2 0.309083 0.00197949 0.631639
243 1 0.498935 0.0656227 0.639825
242 1 0.205324 0.475729 0.618787
273 1 0.394463 0.260882 0.756433
327 2 0.453729 0.31625 0.641513
75 1 0.105382 0.174625 0.843965
39 1 0.172829 0.0750706 0.938334
141 1 0.224249 0.224151 0.930976
305 2 0.43961 0.0926124 0.924794
328 2 0.272455 0.307464 0.828711
65 1 0.289648 0.0887226 0.845907
136 1 0.482613 0.325822 0.899176
245 1 0.495937 0.162206 0.837775
11 1 0.372291 0.220889 0.899801
24 1 0.223744 0.385583 0.941559
78 1 0.125063 0.32465 0.839744
83 1 0.101412 0.467271 0.865856
184 1 0.368681 0.409497 0.83993
334 2 0.371618 0.364894 0.970726
306 2 0.0229726 0.301193 0.915574
248 1 0.0812549 0.378105 0.991857
155 1 0.0854766 0.0262459 0.812507
12 1 -0.0013578 0.0540561 0.946841
138 1 0.341806 0.117147 0.999673
185 1 0.114272 0.607433 0.114349
234 1 0.406709 0.882686 0.117098
324 2 0.34616 0.601232 0.0626968
227 1 0.240848 0.999806 0.0681063
80 1 0.269343 0.832935 0.0380609
320 2 0.0341983 0.807122 0.183811
134 1 0.411758 0.721018 0.0963433
19 1 0.402389 0.568749 0.167236
216 1 0.259801 0.684122 0.106959
30 1 0.247562 0.524558 0.125941
156 1 0.237036 0.904214 0.191387
183 1 0.0994819 0.912054 0.130653
187 1 0.127461 0.772101 0.0950937
172 1 0.475752 0.609848 0.00475403
301 2 0.264658 0.785979 0.197298
266 1 0.136631 0.572317 0.324657
51 1 0.210733 0.701768 0.287715
280 1 0.0523925 0.695701 0.255152
167 1 0.279921 0.538303 0.280029
54 1 0.35685 0.868613 0.258494
309 2 0.309978 0.652022 0.223824
84 1 0.401719 0.728987 0.257628
219 1 0.423143 0.567322 0.331888
76 1 0.141 0.971959 0.27369
339 2 0.439768 0.979558 0.254754
92 1 0.0262573 0.536377 0.218411
252 1 0.0917903 0.83064 0.303714
93 1 0.237098 0.856849 0.340961
174 1 0.0313946 0.954527 0.391631
103 1 0.00964455 0.530489 0.374769
343 2 0.459242 0.804515 0.34861
15 1 0.355748 0.748182 0.403162
127 1 0.1238 0.551633 0.48048
29 1 0.252953 0.613622 0.411598
49 1 0.310806 0.520501 0.521134
45 1 0.208091 0.647735 0.553947
232 1 0.42829 0.615188 0.475304
322 2 0.462833 0.717334 0.523801
348 2 0.131609 0.874725 0.42215
323 2 0.0659801 0.808494 0.555197
52 1 0.350933 0.699502 0.590177
206 1 0.297102 0.923135 0.527899
225 1 0.111884 0.933926 0.53937
71 1 0.415353 0.830829 0.512955
46 1 0.382935 0.914756 0.398814
268 1 0.0566664 0.682585 0.539028
213 1 0.197636 0.801659 0.487648
145 1 0.198635 0.980511 0.419411
124 1 0.118129 0.701509 0.401737
170 1 0.487407 0.786853 0.633871
122 1 0.172188 0.628794 0.693885
250 1 0.0461391 0.694951 0.716161
121 1 0.00596142 0.549702 0.777175
279 1 0.487027 0.638858 0.62023
304 2 0.297077 0.687543 0.701971
217 1 0.423801 0.709588 0.7436
130 1 0.337563 0.572041 0.692679
106 1 0.415249 0.917343 0.645258
293 2 0.175909 0.746045 0.749901
347 2 0.448922 0.86528 0.794933
101 1 0.0322397 0.874215 0.676889
269 1 0.156233 0.793338 0.638945
181 1 0.193111 0.93262 0.668625
315 2 0.105294 0.897463 0.784143
241 1 0.319484 0.954384 0.763328
277 1 0.310622 0.81663 0.67754
300 2 0.139111 0.507966 0.732817
214 1 0.489594 0.509375 0.717099
157 1 0.060145 0.530053 0.629118
116 1 0.12115 0.614334 0.853048
34 1 0.261048 0.672093 0.812887
117 1 0.251302 0.498549 0.831173
176 1 0.39789 0.593571 0.837391
264 1 0.32581 0.669474 0.957502
211 1 0.516936 0.883938 0.919866
260 1 0.339033 0.508797 0.954787
244 1 0.183333 0.741569 0.944448
189 1 0.477339 0.726822 0.904849
223 1 0.0871218 0.786073 0.833278
291 2 0.0507914 0.930086 0.896509
33 1 0.158937 0.900618 0.956996
196 1 0.312635 0.950659 0.921483
142 1 0.345957 0.803482 0.876471
23 1 0.182385 0.545992 0.981491
318 2 0.206094 0.978053 0.858384
150 1 0.453091 1.00757 0.814504
100 1 0.0194097 0.825089 0.975333
8 1 0.499348 0.497699 0.887049
281 1 0.422399 0.988568 1.01621
16 1 0.0591673 0.669443 0.990402
349 2 0.39883 0.848198 0.978713
207 1 0.220061 0.843721 0.802968
17 1 0.680102 0.0817423 0.177237
283 1 0.579122 0.229605 0.147799
72 1 0.544832 0.508375 0.1665
9 1 0.733863 0.409925 0.0579122
229 1 0.559798 0.0926196 0.0860939
21 1 0.823591 0.131136 0.173988
284 1 0.94596 0.448445 0.0661139
218 1 0.950558 0.164533 0.0881496
118 1 0.829692 0.26191 0.0990623
201 1 0.581321 0.331898 0.0271816
333 2 0.701802 0.277197 0.0822867
246 1 0.640011 0.380356 0.169322
307 2 0.892653 0.0220503 0.162891
6 1 0.67571 0.158689 0.0236433
97 1 0.799861 0.374033 0.193212
286 1 0.613001 0.204043 0.306062
160 1 0.762302 0.104069 0.306712
166 1 0.526506 0.108372 0.237383
310 2 0.782044 0.237803 0.326208
57 1 0.585751 0.0534994 0.359512
311 2 0.512037 0.162132 0.384473
2 1 0.933612 0.408477 0.236336
7 1 0.910425 0.0781198 0.296158
345 2 0.558607 0.310684 0.243186
37 1 0.518413 0.409582 0.330469
249 1 0.650025 0.342911 0.331514
53 1 0.722667 0.240912 0.209919
253 1 0.820616 0.359992 0.353179
182 1 0.887031 0.260745 0.247165
321 2 0.610334 0.443171 0.266632
133 1 0.731055 0.473643 0.317555
233 1 0.974832 0.317747 0.378359
178 1 0.677025 0.488818 0.561398
102 1 0.615859 0.239263 0.547241
274 1 0.685981 0.0480781 0.484718
120 1 0.548711 0.116469 0.506137
82 1 0.613924 0.459636 0.432944
195 1 0.929455 0.125216 0.567232
202 1 0.820576 0.0531381 0.437677
74 1 0.885155 0.329108 0.502962
81 1 0.791019 0.177137 0.53832
197 1 0.888485 0.465063 0.438278
337 2 0.947677 0.0609554 0.407856
90 1 0.703197 0.340258 0.468013
359 2 0.761608 0.442066 0.432367
352 2 0.925693 0.458313 0.554876
59 1 0.877813 0.202858 0.405734
154 1 0.804841 0.0221892 0.597199
190 1 0.558681 0.371249 0.581586
22 1 0.544519 0.301718 0.432574
158 1 0.698658 0.199222 0.424564
271 1 0.658899 0.110724 0.672439
140 1 0.600181 0.0605394 0.783378
104 1 0.724952 0.278854 0.671002
212 1 0.535698 0.210772 0.680102
147 1 0.905498 0.471452 0.696713
175 1 0.838847 0.14314 0.691356
330 2 0.940053 0.223451 0.66973
47 1 1.00331 0.285203 0.772303
89 1 0.528213 0.35731 0.745198
275 1 0.743016 0.0203343 0.754837
144 1 0.667827 0.422765 0.698182
341 2 0.868542 0.210139 0.786844
199 1 0.977564 0.349734 0.619498
159 1 0.851831 0.321214 0.719565
262 1 0.638997 0.221942 0.817968
96 1 0.786889 0.3908 0.598015
326 2 0.840562 0.275625 0.604106
151 1 0.983866 0.132003 0.760183
314 2 0.738109 0.305693 0.801319
200 1 0.917358 0.00863953 0.682896
302 2 0.606873 0.489642 0.780856
69 1 0.768989 0.170769 0.857812
40 1 0.559531 0.0418054 0.935033
329 2 0.592761 0.262107 0.923531
193 1 0.737515 0.0195985 0.923224
35 1 0.508397 0.19064 0.977247
161 1 0.9548 0.414114 0.848687
222 1 0.960354 0.192555 0.890063
63 1 0.850543 0.300537 0.877127
288 1 0.867467 0.0392599 0.821938
261 1 0.784243 0.425602 0.832678
128 1 0.729868 0.298631 0.955468
299 2 0.714608 0.445146 0.932796
48 1 0.928829 0.312107 0.990728
332 2 0.86264 0.421854 0.938995
73 1 0.632517 0.373603 0.850035
230 1 0.840059 0.134581 0.981876
58 1 0.779202 0.675268 0.0978688
257 1 0.702757 0.539245 0.169965
203 1 0.628508 0.641051 0.104268
351 2 0.626438 0.766498 0.168797
357 2 0.541582 0.958712 0.0257611
112 1 0.911215 0.844242 0.144013
256 1 0.863297 0.538258 0.157826
270 1 0.973034 0.70093 0.123284
294 2 0.704038 0.588477 0.0104122
235 1 0.960476 0.953196 0.0670923
297 2 0.669159 0.7675 0.0518817
231 1 0.551247 0.815792 0.0637523
10 1 0.54372 0.967848 0.163622
272 1 0.747028 0.810591 0.17894
319 2 0.648263 0.901265 0.129587
163 1 0.789454 0.815208 0.0255525
358 2 0.921359 0.768348 0.0248831
356 2 0.977197 0.58128 0.092303
41 1 0.784745 0.968949 0.0753263
239 1 0.649986 0.917854 0.0113205
32 1 0.527939 0.907547 0.343633
308 2 0.664093 0.664308 0.370906
64 1 0.59951 0.554469 0.310718
25 1 0.801908 0.972375 0.238597
135 1 0.935967 0.822246 0.28918
265 1 0.691505 0.674164 0.238568
353 2 0.943092 0.625194 0.256696
215 1 0.790865 0.694992 0.352775
66 1 0.869085 0.54487 0.313955
285 1 0.9785 0.956461 0.232794
263 1 0.632367 0.789864 0.315971
18 1 0.528979 0.687595 0.362911
289 2 0.785624 0.601196 0.254196
60 1 0.653975 0.939175 0.269811
194 1 0.772267 0.844438 0.339876
146 1 0.888436 0.944925 0.35291
105 1 0.534454 0.65244 0.207766
313 2 0.738018 0.983472 0.351285
139 1 0.85852 0.703604 0.215107
169 1 0.510058 0.810282 0.216237
236 1 0.971614 0.688298 0.385998
360 2 0.768033 0.939664 0.469486
125 1 0.742691 0.572646 0.437235
344 2 0.703862 0.623965 0.575353
108 1 0.60191 0.592276 0.490811
126 1 0.846187 0.832975 0.466842
316 2 0.878745 0.591651 0.418241
259 1 0.830336 0.552365 0.555956
38 1 0.856421 0.683905 0.506854
20 1 0.968826 0.572963 0.509192
88 1 0.543115 0.962689 0.51505
91 1 0.652925 0.905226 0.424179
336 2 0.6021 0.853608 0.59439
123 1 0.548852 0.798798 0.460516
5 1 0.717156 0.842383 0.550154
282 1 0.714656 0.709555 0.473864
173 1 0.955833 0.960745 0.527249
129 1 0.617872 0.725457 0.581106
79 1 0.99169 0.827279 0.445715
342 2 0.515306 0.530673 0.418633
335 2 0.576147 0.704721 0.711983
204 1 0.842568 0.869609 0.658126
86 1 0.628834 0.585942 0.677918
287 1 0.921593 0.625771 0.650543
240 1 0.781149 0.552138 0.713394
50 1 0.911841 0.775797 0.753917
143 1 0.696815 0.684022 0.770983
238 1 0.786249 0.7026 0.637931
27 1 0.666016 0.966755 0.623423
168 1 0.545276 0.938558 0.709925
110 1 0.702703 0.845358 0.717298
317 2 0.829222 0.656733 0.751743
56 1 0.571339 0.802821 0.78316
221 1 0.931814 0.782035 0.58214
258 1 0.98764 0.529251 0.951256
1 1 0.69206 0.548727 0.860997
3 1 0.617382 0.660606 0.947564
303 2 0.752445 0.889519 0.940107
13 1 0.811845 0.520015 0.992451
251 1 0.877188 0.949524 0.938169
226 1 0.787606 0.683704 0.909059
77 1 0.979303 0.682628 0.847469
267 1 0.873799 0.566549 0.850347
192 1 0.884115 0.801489 0.910815
94 1 0.644167 0.931212 0.846642
153 1 0.61753 0.504716 1.01015
186 1 0.682974 0.793786 0.903683
312 2 0.781568 0.773434 0.817333
36 1 0.963312 0.923197 0.801124
180 1 0.548644 0.628286 0.803314
164 1 0.804221 0.895609 0.812896
67 1 0.907264 0.6472 1.00052
ITEM: TIMESTEP
100000
ITEM: NUMBER OF ATOMS
360
ITEM: BOX BOUNDS pp pp pp
0.0000000000000000e+00 6.6943295008216896e+00
0.0000000000000000e+00 6.6943295008216896e+00
0.0000000000000000e+00 6.6943295008216896e+00
ITEM: ATOMS id type xs ys zs
331 2 0.482188 0.17779 0.136761
332 2 0.156574 0.19333 0.0714966
285 1 0.0399707 0.166693 0.114129
359 2 0.502909 0.436546 0.0339172
156 1 0.198085 0.0693816 0.0469115
235 1 0.347688 0.0886437 0.111165
85 1 0.274953 0.213058 0.0151626
14 1 0.4898 0.291606 0.0935491
185 1 0.127958 0.282691 0.1611
310 2 0.236362 0.31302 0.103087
307 2 0.361097 0.238686 0.115931
48 1 0.148657 0.41898 0.124722
8 1 0.392656 0.416056 0.0961186
30 1 0.27906 0.510913 0.0967628
191 1 0.254207 0.184019 0.179429
41 1 0.221694 0.00890457 0.194962
251 1 0.487554 0.0121936 0.0724733
145 1 0.143395 0.310587 -0.00103153
177 1 0.274496 0.388543 0.198397
24 1 0.299142 0.367622 0.00380986
278 1 0.138374 0.207106 0.370581
12 1 0.122831 0.106712 0.23589
291 2 0.35462 0.0413536 0.233604
227 1 0.416321 0.0396631 0.338432
103 1 0.00687769 0.498691 0.345269
254 1 0.389475 0.155266 0.248488
224 1 0.26598 0.113798 0.316542
7 1 0.152206 0.0275326 0.37379
62 1 0.149156 0.36139 0.29498
28 1 0.474023 0.436997 0.319164
209 1 0.0014518 0.206528 0.272897
87 1 0.00464864 0.374571 0.244894
247 1 0.297259 0.271326 0.298283
120 1 0.301225 0.425764 0.347178
167 1 0.430899 0.305908 0.233002
222 1 0.169123 0.147873 0.499726
304 2 0.0518133 0.0852202 0.485369
352 2 0.0267494 0.210189 0.4315
208 1 0.257807 0.269565 0.600348
221 1 0.308287 0.204755 0.451216
174 1 0.286087 0.0278698 0.44528
119 1 0.427919 0.227669 0.562961
179 1 0.422948 0.0897798 0.499495
290 2 0.273898 0.456349 0.47006
157 1 0.0215019 0.443918 0.500547
233 1 0.202923 0.416008 0.595231
70 1 0.296345 0.10644 0.592788
184 1 0.357151 0.359337 0.493242
149 1 0.108708 0.32253 0.5441
68 1 0.215789 0.345481 0.446892
196 1 0.451576 0.297512 0.397342
104 1 0.0446333 0.322096 0.39586
178 1 0.451869 0.50748 0.542842
164 1 0.027095 0.182379 0.56522
75 1 0.0718391 0.0350323 0.604448
74 1 0.161657 0.478842 0.409768
175 1 0.152559 0.167762 0.652755
237 1 0.171144 0.0602177 0.766224
55 1 0.497408 0.197974 0.717914
338 2 0.26017 0.317019 0.771603
63 1 0.0124067 0.121821 0.706347
241 1 0.300294 0.159986 0.754075
355 2 0.339613 0.37309 0.623449
109 1 0.423716 0.0713843 0.658233
162 1 0.381746 0.310517 0.731599
212 1 0.426261 0.485231 0.692871
83 1 0.15329 0.317904 0.70796
61 1 0.485246 0.356236 0.644811
300 2 0.0482915 0.239053 0.684387
205 1 0.276151 0.441148 0.732799
345 2 0.155337 0.463771 0.695476
121 1 -0.000123376 0.3569 0.632519
16 1 0.0382533 0.392849 0.773785
141 1 0.0810282 0.155839 0.956039
148 1 0.389557 0.455026 0.842805
350 2 0.140095 0.0378868 0.917403
248 1 0.0441981 0.00430744 0.830563
170 1 0.326147 0.263043 0.878784
309 2 0.303477 0.471337 0.932256
52 1 0.415726 0.130691 0.831738
65 1 0.378849 0.0257488 0.957796
138 1 0.260919 0.111427 0.903704
260 1 0.421917 0.18127 0.983436
298 2 0.196141 0.223709 0.928737
95 1 0.192587 0.367091 0.858317
306 2 0.083554 0.291255 0.885165
130 1 0.0337735 0.40558 0.93963
255 1 0.449931 0.354672 0.955372
115 1 0.176571 0.468189 0.970777
347 2 0.0644454 0.137735 0.830354
328 2 0.353867 0.0297555 0.829419
11 1 0.160866 0.20939 0.811928
349 2 0.0777109 0.501963 0.041065
264 1 0.146988 0.730962 0.150917
258 1 0.148123 0.59953 0.0687931
136 1 0.357671 0.937372 0.146507
305 2 0.291032 0.989795 0.0465836
231 1 0.273107 0.643529 0.184699
311 2 0.344929 0.607695 0.0717284
2 1 0.0275452 0.505519 0.181156
272 1 0.420932 0.66005 0.159599
188 1 0.191725 0.862568 0.0686681
33 1 0.037843 0.816093 0.0576375
139 1 0.0572421 0.944258 0.147121
216 1 0.293454 0.746747 0.0787678
57 1 0.438122 0.799325 0.113472
80 1 0.0623067 0.993973 0.0076543
3 1 0.423865 0.675601 0.00677715
88 1 0.192707 0.72982 0.305981
236 1 0.176388 0.874956 0.398095
213 1 0.0868981 0.641068 0.256344
252 1 0.295867 0.929379 0.298977
343 2 0.303673 0.562603 0.312343
152 1 0.391848 0.674981 0.331558
341 2 0.407385 0.827631 0.317359
198 1 0.19873 0.522872 0.25275
114 1 0.00822705 0.92934 0.324779
323 2 0.117798 0.975286 0.253955
220 1 0.474459 0.92027 0.263459
183 1 0.16793 0.857589 0.24555
38 1 0.059957 0.770556 0.35875
211 1 0.0333358 0.805304 0.214825
54 1 0.326798 0.7955 0.215265
265 1 0.502922 0.578913 0.270234
29 1 0.369205 0.512323 0.219709
94 1 0.30476 0.786523 0.377062
301 2 0.203908 0.76134 0.460307
111 1 0.212001 0.66982 0.542974
127 1 0.0955364 0.621952 0.430285
266 1 0.128134 0.540428 0.552112
259 1 0.0629928 0.74021 0.515267
229 1 0.302863 0.81184 0.530147
45 1 0.376793 0.550931 0.432463
15 1 0.388435 0.663713 0.523823
346 2 0.294075 0.906992 0.456466
234 1 0.415165 0.911196 0.41969
225 1 0.0648979 0.949207 0.479482
36 1 0.214792 0.968776 0.555432
10 1 0.15363 0.845072 0.564277
194 1 0.456818 0.767092 0.430605
43 1 0.305791 0.519967 0.593315
124 1 0.242367 0.622584 0.412438
274 1 0.364808 0.950329 0.560293
279 1 0.448867 0.808671 0.579782
49 1 0.209592 0.584295 0.693171
223 1 -0.00205282 0.607535 0.80654
308 2 0.0890932 0.623699 0.647683
342 2 0.2436 0.674413 0.778675
168 1 0.37283 0.861028 0.685923
71 1 0.307145 0.717073 0.648131
273 1 0.473658 0.653769 0.674963
295 2 0.470316 0.951238 0.634164
269 1 0.223424 0.809185 0.768967
206 1 0.28984 0.983333 0.703514
181 1 0.150957 0.732279 0.663392
340 2 0.252055 0.856657 0.647197
93 1 0.127572 0.931685 0.6918
110 1 0.468227 0.969907 0.759047
244 1 0.0305032 0.831815 0.785254
40 1 0.381779 0.733998 0.790823
122 1 -0.00521333 0.703072 0.671078
192 1 0.0180739 0.842694 0.615943
277 1 0.0435793 0.506797 0.684451
261 1 0.0691728 0.583674 0.93033
217 1 0.132163 0.709868 0.832005
320 2 0.182797 0.596858 0.889321
336 2 0.19591 0.948257 0.817403
117 1 0.300752 0.579764 0.833644
144 1 0.442656 0.597846 0.857668
39 1 0.277976 0.745398 0.911967
35 1 0.1068 0.870344 0.913748
245 1 0.489972 0.952487 0.909146
203 1 0.397815 0.511538 0.985456
142 1 0.333698 0.897577 0.841791