ITEM: TIMESTEP
0
ITEM: NUMBER OF ATOMS
360
ITEM: BOX BOUNDS pp pp pp
0.0000000000000000e+00 6.6943295008216896e+00
0.0000000000000000e+00 6.6943295008216896e+00
0.0000000000000000e+00 6.6943295008216896e+00
ITEM: ATOMS id type xs ys zs
93 1 0.164888 0.102858 0.140377
207 1 0.036444 0.0999318 0.101852
309 2 0.065636 0.225164 0.097898
174 1 0.229759 0.130442 0.0253605
258 1 0.498102 0.0106722 0.0547095
55 1 0.476292 0.138319 0.131822
108 1 0.317613 0.211088 0.192121
92 1 0.372188 0.194728 0.0507404
190 1 0.349504 0.0726441 0.0913593
241 1 0.0507319 0.316553 0.0470316
74 1 0.0380614 0.487142 0.0846481
79 1 0.142794 0.392802 0.10564
260 1 0.443112 0.254876 0.161133
264 1 0.278459 0.359408 0.119407
2 1 0.438852 0.326857 0.0555796
84 1 0.415417 0.418115 0.154469
150 1 0.499806 0.451545 0.0202286
176 1 0.366465 0.475911 0.0473553
290 2 0.164379 0.0328519 0.251753
157 1 0.135355 0.180578 0.246004
25 1 0.0626677 0.0874859 0.336181
246 1 0.0174232 0.16144 0.235135
70 1 0.0807448 0.238173 0.38611
300 2 0.162263 0.124889 0.398941
82 1 0.495181 0.0113069 0.324713
7 1 0.37372 0.066712 0.300542
219 1 0.322396 0.179712 0.382348
14 1 0.455574 0.169199 0.291968
169 1 0.272974 0.0499036 0.200475
358 2 0.10843 0.394281 0.362937
282 1 0.13094 0.468905 0.25363
336 2 0.156924 0.287306 0.214477
127 1 0.240562 0.297898 0.321154
274 1 0.310573 0.444652 0.359505
299 2 0.489089 0.251599 0.385608
105 1 0.273601 0.401289 0.237583
5 1 0.39051 0.354146 0.265355
155 1 0.392848 0.323299 0.382143
319 2 0.103189 0.205899 0.519795
42 1 0.0135633 0.0919914 0.536691
101 1 0.143675 0.0934353 0.53216
276 1 0.457476 0.0108598 0.503296
275 1 0.351263 0.0609976 0.581916
266 1 0.498496 0.223363 0.490668
164 1 0.404352 0.10757 0.439782
356 2 0.457682 0.131171 0.550215
132 1 0.261215 0.045137 0.468589
158 1 0.341384 0.225359 0.499669
315 2 0.237991 0.495947 0.449817
332 2 0.0341587 0.353669 0.58154
16 1 0.0618505 0.354367 0.473818
220 1 0.204363 0.25784 0.467713
185 1 0.239157 0.379625 0.467221
143 1 0.438742 0.349375 0.503519
340 2 0.350979 0.446001 0.536427
59 1 0.244359 0.189975 0.695216
62 1 0.05205 0.218591 0.631888
195 1 0.146529 0.15767 0.778063
71 1 0.014433 0.0798029 0.729221
67 1 0.490313 0.038988 0.672125
109 1 0.361957 0.014749 0.717471
342 2 0.304959 0.162934 0.602314
142 1 0.400631 0.158681 0.66729
291 2 0.491116 0.140376 0.751735
278 1 0.20603 0.386662 0.794289
231 1 0.224059 0.282769 0.608748
45 1 0.137665 0.272954 0.708905
196 1 0.0853024 0.474859 0.643683
218 1 0.335255 0.467128 0.739268
179 1 0.440311 0.416848 0.786287
197 1 0.322755 0.363319 0.615899
81 1 0.454286 0.361402 0.680552
34 1 0.0863532 0.0958373 0.969882
4 1 0.0373548 0.229527 0.937917
303 2 0.167315 0.211005 0.918723
357 2 0.0654778 0.142761 0.869501
247 1 0.219904 0.0823379 0.918431
122 1 0.00476028 0.0373918 0.854959
263 1 0.320626 0.220407 0.803659
321 2 0.300406 0.199314 0.963329
294 2 0.350841 0.100252 0.972427
15 1 0.429856 0.179884 0.932194
272 1 0.341466 0.0316115 0.887045
306 2 0.266781 0.103607 0.801095
352 2 0.0976706 0.382258 0.82253
163 1 0.218331 0.304687 0.960033
208 1 0.105345 0.398185 0.930834
182 1 0.236674 0.460236 0.978943
134 1 0.442626 0.440103 0.905583
334 2 0.32399 0.410332 0.832091
222 1 0.350385 0.314182 0.962243
159 1 0.484803 0.276208 0.821004
3 1 0.232881 0.638137 0.116792
355 2 0.121024 0.712389 0.154689
193 1 0.11448 0.598828 0.0380768
348 2 0.0872811 0.584146 0.162189
115 1 0.186391 0.513415 0.115788
292 2 0.0432597 0.687258 0.0225187
147 1 0.440383 0.680828 0.103655
313 2 0.44476 0.560281 0.0373921
135 1 0.47681 0.53705 0.136679
112 1 0.280093 0.612431 0.00184373
359 2 0.346285 0.52403 0.151363
308 2 0.464281 0.74195 0.00864876
244 1 0.333106 0.745093 0.00357895
234 1 0.0797245 0.817665 0.0762012
24 1 0.221141 0.761218 0.0918858
119 1 0.0865455 0.970796 0.106127
50 1 0.0450805 0.860451 0.191582
40 1 0.171445 0.956687 0.00315926
51 1 0.27189 0.898641 0.0927055
318 2 0.338956 0.76196 0.104971
154 1 0.412112 0.832254 0.136004
27 1 0.295235 0.995798 0.0123697
350 2 0.487493 0.77207 0.196994
333 2 0.216889 0.525199 0.227079
99 1 0.228833 0.671045 0.394244
80 1 0.133309 0.721324 0.262343
167 1 0.22522 0.622544 0.256316
58 1 0.0722745 0.535631 0.3713
330 2 0.006175 0.632896 0.31233
21 1 0.0467874 0.725383 0.396171
198 1 0.349235 0.672699 0.225833
211 1 0.338308 0.589789 0.368595
265 1 0.463752 0.616447 0.353994
18 1 0.393041 0.548241 0.247229
149 1 0.0194477 0.987582 0.239487
284 1 0.116531 0.939952 0.339538
20 1 0.2044 0.817439 0.362477
126 1 0.408993 0.843484 0.361219
44 1 0.4837 0.959125 0.21788
91 1 0.342574 0.75563 0.314875
233 1 0.299885 0.936252 0.280804
250 1 0.257998 0.814986 0.225842
76 1 0.0381736 0.720563 0.569732
312 2 0.198083 0.696038 0.491896
68 1 0.0393256 0.577194 0.556841
287 1 0.167631 0.570794 0.509247
328 2 0.473548 0.705241 0.425687
151 1 0.300136 0.576346 0.515228
214 1 0.406373 0.502897 0.435808
181 1 0.368461 0.716817 0.493902
225 1 0.0234729 0.944987 0.443174
29 1 0.0984195 0.833175 0.459522
251 1 0.220658 0.95779 0.585519
293 2 0.223251 0.895083 0.462112
224 1 0.188744 0.821928 0.551185
320 2 0.141716 0.998989 0.42939
221 1 0.342999 0.861514 0.565478
133 1 0.333591 0.953917 0.441563
140 1 0.456324 0.83636 0.472945
23 1 0.472188 0.777989 0.59637
325 2 0.0528737 0.741892 0.75285
26 1 0.0534944 0.598195 0.690431
289 2 0.21662 0.658461 0.641172
183 1 0.194744 0.523546 0.711053
200 1 0.134936 0.633848 0.783678
213 1 0.378673 0.657598 0.626243
152 1 0.31604 0.63137 0.762085
46 1 0.299779 0.50817 0.612011
8 1 0.387952 0.745255 0.767966
240 1 0.490463 0.542699 0.726351
130 1 0.420466 0.502045 0.626482
243 1 0.090056 0.870037 0.66079
273 1 0.239205 0.971106 0.783221
161 1 0.167479 0.767534 0.707484
33 1 0.101163 0.990756 0.639796
139 1 0.0598387 0.850925 0.782458
329 2 0.27909 0.839462 0.679839
170 1 0.415244 0.92969 0.640769
13 1 0.444657 0.852903 0.77254
248 1 0.157668 0.710079 0.89612
223 1 0.0392946 0.60028 0.887673
22 1 0.16105 0.518945 0.860417
77 1 0.449673 0.563477 0.835513
124 1 0.366516 0.642279 0.897207
37 1 0.297166 0.533274 0.897112
178 1 0.000822901 0.981891 0.984504
269 1 0.188241 0.810502 0.977567
28 1 0.213586 0.885308 0.872267
192 1 0.0537281 0.769778 0.92784
49 1 0.104095 0.993589 0.800195
173 1 0.0602214 0.892279 0.918695
212 1 0.454862 0.995278 0.843879
128 1 0.496222 0.863475 0.898623
335 2 0.295523 0.844942 0.940731
310 2 0.401448 0.774216 0.875961
121 1 0.256031 0.752088 0.819075
148 1 0.41295 0.895936 0.99936
343 2 0.673673 0.0220471 0.0595127
19 1 0.683227 0.230174 0.173421
283 1 0.705904 0.154164 0.0331603
53 1 0.566673 0.155541 0.0142593
187 1 0.608377 0.107827 0.169993
72 1 0.878558 0.102914 0.090148
189 1 0.785778 0.102074 0.177101
138 1 0.946265 0.232572 0.062557
205 1 0.565271 0.324372 0.0816494
252 1 0.710077 0.494893 0.191957
104 1 0.720148 0.369565 0.14873
216 1 0.764185 0.473631 0.0600504
346 2 0.805929 0.369517 0.0171322
113 1 0.878971 0.429566 0.0574675
10 1 0.817739 0.28389 0.0988163
61 1 0.990524 0.376125 0.1383
351 2 0.514027 0.0638465 0.224828
295 2 0.593439 0.187556 0.329839
255 1 0.569632 0.243255 0.237835
202 1 0.720752 0.145722 0.345846
87 1 0.926702 0.163612 0.375524
175 1 0.816041 0.203903 0.256179
194 1 0.90256 0.0895846 0.248526
110 1 0.563501 0.412979 0.220011
85 1 0.716924 0.312709 0.256402
203 1 0.699944 0.463806 0.334998
98 1 0.560641 0.370803 0.377753
316 2 0.834744 0.403423 0.344483
89 1 0.996487 0.318256 0.29618
201 1 0.869907 0.334232 0.228636
65 1 0.56562 0.0968471 0.410435
339 2 0.51801 0.0101401 0.575185
48 1 0.656474 0.226275 0.463278
90 1 0.55462 0.13953 0.587578
230 1 0.975705 0.208943 0.488204
166 1 0.854261 0.106635 0.576942
97 1 0.774414 0.194257 0.489302
107 1 0.922779 0.0399659 0.437021
324 2 0.789652 0.0555091 0.418772
238 1 0.733416 0.40605 0.498766
280 1 0.582933 0.371937 0.514702
111 1 0.714132 0.329063 0.404533
259 1 0.657983 0.297066 0.581622
102 1 0.660505 0.480306 0.548125
347 2 0.531789 0.481061 0.537032
73 1 0.903556 0.30441 0.585611
69 1 0.864568 0.446734 0.557273
31 1 0.84689 0.322742 0.46343
32 1 0.964516 0.42083 0.418101
160 1 0.700114 0.135951 0.60012
131 1 0.655892 0.157146 0.738013
129 1 0.62114 0.0492749 0.685454
30 1 0.828251 0.108542 0.741664
253 1 0.773323 0.246837 0.789631
41 1 0.768123 0.00793805 0.625776
11 1 0.89617 0.202184 0.661607
338 2 0.693376 0.432801 0.726669
100 1 0.648564 0.313062 0.729775
188 1 0.567512 0.452775 0.643026
307 2 0.770403 0.348947 0.698456
237 1 0.986124 0.346427 0.684518
47 1 0.857355 0.417256 0.682584
235 1 0.978224 0.456696 0.781326
302 2 0.785318 0.287124 0.603627
168 1 0.666392 0.177195 0.889498
172 1 0.673403 0.0193174 0.833839
341 2 0.577202 0.00879321 0.884045
12 1 0.562498 0.119583 0.843191
60 1 0.843455 0.190228 0.911492
35 1 0.948733 0.137224 0.975869
314 2 0.762179 0.110276 0.834464
165 1 0.834652 0.0154262 0.93891
317 2 0.905369 0.106618 0.833686
78 1 0.945126 0.207814 0.824505
285 1 0.729577 0.281466 0.942733
209 1 0.53702 0.353305 0.920296
322 2 0.605656 0.481197 0.926896
9 1 0.681549 0.410554 0.962107
88 1 0.979444 0.439043 0.982036
94 1 0.786299 0.392458 0.889937
118 1 0.900871 0.352464 0.826209
286 1 0.911926 0.306347 0.975849
137 1 0.632476 0.66428 0.0408641
227 1 0.619126 0.530723 0.0802566
43 1 0.574261 0.677543 0.175542
301 2 0.731178 0.70566 0.149713
331 2 0.814091 0.617428 0.18407
54 1 0.904101 0.557659 0.166852
270 1 0.931269 0.745882 0.105331
236 1 0.813635 0.655791 0.0670546
162 1 0.997089 0.665185 0.197167
326 2 0.651777 0.956225 0.160799
117 1 0.681841 0.874835 0.054277
311 2 0.53736 0.771937 0.095977
103 1 0.566326 0.856282 0.151471
106 1 0.769391 0.812084 0.13539
261 1 0.781406 0.990952 0.0548906
360 2 0.782118 0.94938 0.154899
184 1 0.927619 0.912306 0.0585469
337 2 0.868854 0.832352 0.191242
228 1 0.881415 0.996799 0.167099
297 2 0.620207 0.688524 0.311909
120 1 0.670709 0.598043 0.33597
52 1 0.548798 0.747519 0.361041
75 1 0.559946 0.514673 0.310311
171 1 0.682746 0.74242 0.384038
298 2 0.506 0.600151 0.231179
145 1 0.894941 0.726722 0.247728
123 1 0.781223 0.690725 0.312527
136 1 0.810074 0.560906 0.368996
66 1 0.912929 0.507874 0.294329
239 1 0.671979 0.782776 0.234479
215 1 0.596383 0.864289 0.311793
271 1 0.727583 0.868525 0.387293
36 1 0.718398 0.999843 0.243407
210 1 0.887836 0.814124 0.357285
262 1 0.83684 0.943105 0.300379
141 1 0.955912 0.927271 0.33641
146 1 0.77976 0.809054 0.283504
63 1 0.659757 0.588656 0.479478
191 1 0.644122 0.713345 0.527073
217 1 0.506703 0.609825 0.561869
144 1 0.812326 0.707418 0.44777
242 1 0.915293 0.674115 0.556085
226 1 0.919085 0.554067 0.467574
83 1 0.786976 0.565459 0.515633
206 1 0.578214 0.880468 0.545701
288 1 0.627187 0.978622 0.428424
344 2 0.696864 0.892107 0.498109
268 1 0.715714 0.828583 0.578607
199 1 0.783573 0.975729 0.498631
323 2 0.855339 0.922823 0.582392
57 1 0.975074 0.975456 0.574995
256 1 0.856049 0.870191 0.480003
327 2 0.713012 0.736599 0.673027
125 1 0.559485 0.697706 0.632856
64 1 0.702414 0.504583 0.66108
249 1 0.672732 0.684607 0.761148
95 1 0.753195 0.635714 0.648414
6 1 0.817241 0.517939 0.766499
257 1 0.901177 0.551396 0.646513
180 1 0.859652 0.658029 0.720587
354 2 0.652703 0.946937 0.673759
232 1 0.571653 0.807164 0.707274
281 1 0.549198 0.932726 0.719548
177 1 0.895147 0.776672 0.790695
245 1 0.959461 0.76048 0.671786
254 1 0.973159 0.927269 0.718189
277 1 0.836588 0.782021 0.631767
56 1 0.789471 0.984572 0.772722
86 1 0.508227 0.707052 0.842237
17 1 0.53492 0.583179 0.96753
39 1 0.73804 0.54099 0.913961
153 1 0.58998 0.599631 0.828096
186 1 0.665166 0.684681 0.912079
345 2 0.553414 0.688164 0.942627
304 2 0.717001 0.632878 0.975537
116 1 0.65277 0.501499 0.803583
96 1 0.800514 0.662693 0.868804
114 1 0.942382 0.639396 0.809175
38 1 0.909213 0.712571 0.949996
229 1 0.853469 0.548081 0.981821
296 2 0.965042 0.544331 0.940641
353 2 0.638085 0.855513 0.86388
1 1 0.738427 0.927944 0.894317
156 1 0.591184 0.934941 0.989206
349 2 0.591973 0.827214 0.97472
267 1 0.913037 0.891898 0.8455
279 1 0.783389 0.804549 0.850615
204 1 0.796217 0.801134 0.974967
305 2 0.88629 0.842841 0.951104
ITEM: TIMESTEP
10000
ITEM: NUMBER OF ATOMS
360
ITEM: BOX BOUNDS pp pp pp
0.0000000000000000e+00 6.6943295008216896e+00
0.0000000000000000e+00 6.6943295008216896e+00
0.0000000000000000e+00 6.6943295008216896e+00
ITEM: ATOMS id type xs ys zs
119 1 0.228797 0.00302245 0.104843
163 1 0.233099 0.14066 0.0647095
76 1 0.0954819 0.0670442 0.140844
10 1 0.0649334 0.16256 0.0357031
4 1 0.135934 0.0149289 0.00271481
209 1 0.477366 0.226457 0.0436409
318 2 0.271858 0.0986993 0.180389
44 1 0.371837 0.00384418 0.155661
308 2 0.458045 0.0771022 0.0599922
174 1 0.366868 0.165051 0.131333
207 1 0.146663 0.286929 0.0605537
235 1 0.0487591 0.382561 0.0112409
305 2 0.0773127 0.356751 0.127544
216 1 0.208193 0.426795 0.0865979
294 2 0.428117 0.349372 0.072288
309 2 0.257243 0.26186 0.104201
58 1 0.344666 0.42517 0.116845
79 1 0.0388932 0.0729187 0.332011
40 1 0.181637 0.0248341 0.250798
7 1 0.219049 0.143089 0.342663
264 1 0.163765 0.19385 0.202893
191 1 0.352144 0.0960248 0.271064
351 2 0.479965 0.153396 0.332733
233 1 0.356802 0.192714 0.382278
154 1 0.267718 0.0109951 0.37443
271 1 0.438931 0.00311283 0.350131
93 1 0.245025 0.40796 0.36084
88 1 0.0372411 0.289804 0.226897
157 1 0.15258 0.29419 0.351463
87 1 0.198881 0.340936 0.214688
316 2 0.11489 0.413359 0.35464
136 1 0.0771438 0.435737 0.243441
91 1 0.445933 0.498943 0.205026
92 1 0.450111 0.268029 0.291415
319 2 0.272024 0.280824 0.333254
89 1 0.364421 0.389782 0.275165
115 1 0.312231 0.255108 0.227442
355 2 0.250963 0.4477 0.226352
300 2 0.0196164 0.0634753 0.452336
220 1 0.206606 0.155716 0.534613
231 1 0.0935954 0.183293 0.440561
101 1 0.155481 0.0409212 0.458433
278 1 0.0904487 0.219754 0.595276
14 1 0.477003 0.105877 0.479306
251 1 0.345298 0.0637937 0.486146
273 1 0.384124 0.216108 0.528833
299 2 0.0044677 0.293336 0.443878
158 1 0.23593 0.280859 0.475485
248 1 0.00967469 0.451514 0.555519
197 1 0.101139 0.348601 0.497619
110 1 0.231805 0.415962 0.538146
219 1 0.356339 0.388035 0.448791
81 1 0.484054 0.446182 0.462289
12 1 0.482385 0.344256 0.586617
356 2 0.242622 0.151305 0.782977
142 1 0.157973 0.138348 0.696616
70 1 0.0606541 0.0739311 0.606328
272 1 0.383079 0.20812 0.744289
183 1 0.300281 0.118579 0.646026
82 1 0.425974 0.0778998 0.61582
196 1 0.0548989 0.253958 0.733107
218 1 0.130518 0.363228 0.652461
73 1 0.0309502 0.419488 0.754943
22 1 0.226206 0.263974 0.717382
130 1 0.188601 0.387124 0.799307
302 2 0.221977 0.268076 0.600404
116 1 0.427725 0.365417 0.730105
5 1 0.258713 0.476182 0.676399
179 1 0.413679 0.479914 0.605142
345 2 0.391145 0.498206 0.716717
281 1 0.321941 0.339454 0.624895
195 1 0.181166 0.0189079 0.814838
306 2 0.208853 0.202062 0.950096
229 1 0.10831 0.147669 0.84384
27 1 0.242763 0.0891923 0.928087
187 1 0.369018 0.0214316 0.987634
222 1 0.343755 0.211485 0.98086
2 1 0.496706 0.133256 0.932787
263 1 0.360287 0.0823502 0.835523
292 2 0.0284634 0.26364 0.997455
208 1 0.117306 0.295299 0.893465
114 1 0.165165 0.472339 0.927354
357 2 0.0466325 0.449448 0.91281
336 2 0.283147 0.467126 0.947401
100 1 0.463029 0.262026 0.865288
241 1 0.394068 0.388296 0.962787
182 1 0.254569 0.352328 0.972089
185 1 0.32106 0.303339 0.843381
113 1 0.350831 0.474456 0.843361
337 2 0.183622 0.681382 0.0185991
112 1 0.241899 0.5596 0.0263279
184 1 0.0684375 0.65937 0.0753898
270 1 0.155955 0.743533 0.16299
21 1 0.0661075 0.508257 0.0907463
167 1 0.17634 0.583581 0.158226
37 1 0.338305 0.582275 0.144966
3 1 0.289038 0.726559 0.112098
194 1 0.0201049 0.917514 0.0348677
234 1 0.166457 0.831886 0.0517039
169 1 0.125422 0.913238 0.163495
80 1 0.025982 0.798362 0.192825
236 1 0.419665 0.775896 0.154682
156 1 0.476635 0.896422 0.115705
126 1 0.273034 0.87641 0.187469
350 2 0.417575 0.816096 0.0230293
147 1 0.324563 0.885863 0.0490108
358 2 0.0626581 0.562321 0.21042
29 1 0.0854083 0.67497 0.305639
32 1 0.193908 0.547008 0.317311
16 1 0.0233897 0.548022 0.34595
51 1 0.333207 0.553754 0.290762
198 1 0.295533 0.717117 0.263129
84 1 0.471574 0.544252 0.35069
214 1 0.342376 0.668555 0.394387
252 1 0.435551 0.650895 0.249629
293 2 0.134446 0.94038 0.383268
284 1 0.0114575 0.805476 0.336484
103 1 0.154164 0.855563 0.294684
20 1 0.20143 0.754492 0.392907
43 1 0.315356 0.849351 0.335822
256 1 0.438481 0.896971 0.253057
18 1 0.436796 0.772501 0.337507
343 2 0.334104 0.973436 0.273269
332 2 0.0825401 0.652661 0.425909
155 1 0.2141 0.629203 0.447241
181 1 0.112543 0.654202 0.571207
124 1 0.24298 0.728949 0.547364
69 1 0.136058 0.524006 0.485337
105 1 0.311907 0.526009 0.428034
127 1 0.273918 0.585063 0.573071
240 1 0.430674 0.586376 0.500043
322 2 0.367426 0.688029 0.519482
143 1 0.481789 0.715937 0.478798
151 1 0.086527 0.765466 0.477547
243 1 0.0186714 0.948395 0.408299
276 1 0.220829 0.898725 0.462611
59 1 0.0846066 0.915302 0.561275
211 1 0.470499 0.923179 0.524322
303 2 0.276535 0.97471 0.545009
250 1 0.354929 0.81776 0.484499
315 2 0.351088 0.943703 0.431474
301 2 0.458668 0.884103 0.406079
289 2 0.220477 0.519753 0.79845
45 1 0.126882 0.545451 0.684488
287 1 0.0488959 0.670116 0.710211
28 1 0.210664 0.686917 0.683917
133 1 0.395002 0.748914 0.62128
46 1 0.321239 0.600338 0.727905
340 2 0.410022 0.613919 0.626047
125 1 0.435066 0.704203 0.763189
173 1 0.0436298 0.910777 0.733606
247 1 0.0931742 0.796147 0.643404
8 1 0.193671 0.859013 0.728297
34 1 0.197058 0.996061 0.646443
109 1 0.386498 0.853352 0.730511
275 1 0.326263 0.989059 0.717458
221 1 0.28614 0.855794 0.618157
295 2 0.391527 0.926293 0.614579
298 2 0.479602 0.818325 0.664119
13 1 0.487484 0.957124 0.681005
244 1 0.285978 0.760462 0.798634
23 1 0.206199 0.618208 0.888179
74 1 0.101727 0.541837 0.822332
162 1 0.0506509 0.577829 0.946403
49 1 0.133839 0.736156 0.821583
99 1 0.367771 0.640757 0.865979
176 1 0.390262 0.552177 0.991413
213 1 0.473812 0.559062 0.814337
311 2 0.317086 0.648767 0.99925
193 1 0.424218 0.697904 0.996873
192 1 0.0468659 0.759425 0.958323
290 2 0.241898 0.938197 0.983188
352 2 0.0310637 0.969498 0.889304
353 2 0.0310645 0.805976 0.824335
33 1 0.147962 0.853397 0.904119
148 1 0.435506 0.968806 0.832324
149 1 0.273164 0.758805 0.955138
212 1 0.412448 0.809007 0.897972
327 2 0.390572 0.91787 0.93924
24 1 0.276631 0.917928 0.869927
117 1 0.579071 0.103118 0.0566134
326 2 0.695705 0.13964 0.155294
258 1 0.726301 0.145441 0.00937815
190 1 0.519425 0.187894 0.195125
189 1 0.689598 0.0197237 0.104437
262 1 0.516885 0.0356663 0.185805
227 1 0.955293 0.226989 0.118823
175 1 0.832583 0.0868302 0.13173
60 1 0.817055 0.22359 0.0823787
72 1 0.957405 0.0427526 0.0767081
134 1 0.531753 0.336865 0.153808
19 1 0.64526 0.26823 0.0863313
17 1 0.669915 0.419335 0.0844199
86 1 0.503765 0.453474 0.0539535
39 1 0.897351 0.341583 0.0276125
205 1 0.801619 0.369534 0.138086
31 1 0.963029 0.396279 0.162192
346 2 0.803051 0.439202 0.00881427
9 1 0.94326 0.48991 0.00347681
55 1 0.681437 0.0707371 0.249116
288 1 0.595016 0.234162 0.317383
97 1 0.73135 0.227058 0.359366
199 1 0.588025 0.0817771 0.362007
85 1 0.72614 0.244873 0.202247
25 1 0.813585 0.136144 0.26999
324 2 0.859917 0.218682 0.352432
246 1 0.949769 0.11723 0.21782
202 1 0.985873 0.213767 0.345697
132 1 0.894076 0.0858193 0.39514
255 1 0.644438 0.349849 0.390571
108 1 0.663519 0.384278 0.233313
282 1 0.524067 0.399864 0.309963
242 1 0.907889 0.468242 0.272003
54 1 0.87442 0.296656 0.251317
280 1 0.986868 0.360324 0.34166
98 1 0.786089 0.37781 0.340729
339 2 0.679851 0.0958079 0.513085
164 1 0.618815 0.19503 0.482631
36 1 0.579257 0.0453918 0.586717
42 1 0.742053 0.0840653 0.401658
160 1 0.932385 0.0106002 0.5264
111 1 0.96898 0.163006 0.50341
279 1 0.804913 0.141263 0.546243
188 1 0.643373 0.430643 0.512315
266 1 0.509446 0.280311 0.434166
238 1 0.723865 0.298747 0.498027
314 2 0.747059 0.402591 0.57916
47 1 0.632569 0.302263 0.598692
123 1 0.773171 0.492023 0.45449
230 1 0.978784 0.311588 0.565559
203 1 0.922718 0.468963 0.433241
259 1 0.877704 0.295825 0.451746
237 1 0.832622 0.288608 0.599319
90 1 0.858207 0.438624 0.575369
307 2 0.706398 0.239899 0.703737
56 1 0.725225 0.0254261 0.768541
78 1 0.683279 0.138852 0.632916
323 2 0.605788 0.0571401 0.709235
121 1 0.500447 0.106265 0.778002
30 1 0.509634 0.197698 0.637525
166 1 0.619348 0.186825 0.754782
178 1 0.824731 0.0222247 0.658399
165 1 0.803204 0.172987 0.742896
62 1 0.937253 0.198936 0.667037
71 1 0.964269 0.0357921 0.71222
334 2 0.537886 0.483499 0.74522
65 1 0.574962 0.323334 0.728184
131 1 0.590091 0.455633 0.648128
129 1 0.737768 0.359998 0.698415
253 1 0.65385 0.474184 0.786633
312 2 0.92878 0.399566 0.670773
15 1 0.844358 0.467282 0.731786
11 1 0.879112 0.321472 0.754704
260 1 0.602319 0.22538 0.911419
172 1 0.628564 0.0881879 0.881128
291 2 0.715742 0.141945 0.805628
310 2 0.747145 0.0254408 0.886564
285 1 0.814778 0.145868 0.881693
122 1 0.868859 0.0121065 0.845371
53 1 0.829101 0.0241591 0.997234
138 1 0.998653 0.0740938 0.928022
286 1 0.914492 0.17533 0.979524
26 1 0.957018 0.173278 0.816193
118 1 0.724679 0.27365 0.828555
67 1 0.677921 0.42592 0.921816
104 1 0.727847 0.298075 0.970475
159 1 0.563263 0.33741 0.990761
152 1 0.53944 0.399679 0.859652
341 2 0.889107 0.261548 0.871075
245 1 0.972684 0.355742 0.885584
94 1 0.841772 0.410772 0.874676
77 1 0.670386 0.573769 0.0419736
95 1 0.501801 0.600407 0.109065
186 1 0.63288 0.675917 0.161689
217 1 0.630741 0.708677 0.0158433
297 2 0.708793 0.583939 0.174005
150 1 0.599757 0.521941 0.17562
360 2 0.8357 0.649482 0.149551
304 2 0.942847 0.545028 0.136853
201 1 0.812902 0.523995 0.13046
223 1 0.773788 0.70389 0.0393931
354 2 0.815325 0.5867 0.0206485
128 1 0.917925 0.639955 0.0136906
239 1 0.664864 0.861069 0.0813386
349 2 0.57734 0.963572 0.071187
313 2 0.562281 0.777204 0.103817
106 1 0.739113 0.896247 0.195538
135 1 0.775202 0.762242 0.174373
50 1 0.850983 0.941094 0.118678
61 1 0.902412 0.789133 0.0671803
265 1 0.604579 0.621228 0.298395
359 2 0.581797 0.724597 0.37953
75 1 0.646618 0.502922 0.382835
38 1 0.762986 0.654967 0.267202
330 2 0.950083 0.687377 0.394149
66 1 0.862639 0.583948 0.372971
274 1 0.835703 0.746643 0.353131
145 1 0.935962 0.63617 0.23988
48 1 0.761026 0.508375 0.271529
344 2 0.553212 0.967646 0.330251
225 1 0.666116 0.769424 0.278434
120 1 0.584833 0.908277 0.224879
63 1 0.693414 0.938367 0.333495
348 2 0.54983 0.777914 0.223129
331 2 0.781209 0.855027 0.306609
107 1 0.841518 0.986983 0.277296
320 2 0.927077 0.924056 0.340633
228 1 0.88941 0.835155 0.239867
141 1 0.984457 0.976025 0.223831
52 1 0.585455 0.605281 0.507831
64 1 0.715463 0.554826 0.578093
210 1 0.721252 0.634145 0.411363
325 2 0.647497 0.731084 0.504111
333 2 0.539557 0.510128 0.545473
139 1 0.744403 0.742501 0.578422
206 1 0.559948 0.725739 0.598889
257 1 0.971954 0.600091 0.512925
224 1 0.969822 0.734239 0.589736
277 1 0.851167 0.678226 0.491703
338 2 0.8454 0.552122 0.543805
57 1 0.729042 0.822778 0.432196
102 1 0.747159 0.983575 0.538994
317 2 0.74567 0.863064 0.556814
268 1 0.61476 0.882222 0.574741
140 1 0.61745 0.984979 0.459185
226 1 0.582303 0.83822 0.430699
171 1 0.830958 0.935391 0.417432
146 1 0.928445 0.7989 0.443187
342 2 0.988549 0.847244 0.535004
177 1 0.683974 0.644377 0.690498
321 2 0.564009 0.682783 0.748
249 1 0.520394 0.603585 0.675748
296 2 0.716307 0.509415 0.681911
68 1 0.834689 0.634061 0.650351
200 1 0.964959 0.545742 0.668274
335 2 0.774734 0.74904 0.731404
269 1 0.52114 0.826334 0.792994
328 2 0.60996 0.927847 0.696455
35 1 0.738912 0.903077 0.669731
144 1 0.63858 0.802155 0.700651
254 1 0.895932 0.847557 0.633067
329 2 0.90998 0.884124 0.756781
96 1 0.908374 0.751313 0.750359
153 1 0.564722 0.531548 0.936363
347 2 0.672099 0.569983 0.837144
170 1 0.534606 0.679209 0.887167
83 1 0.693544 0.690142 0.843345
267 1 0.831393 0.74124 0.888143
6 1 0.762982 0.541965 0.919356
180 1 0.821695 0.627556 0.805892
232 1 0.945953 0.52654 0.824995
161 1 0.978288 0.662979 0.862412
168 1 0.51895 0.978956 0.94936
1 1 0.668207 0.831332 0.907156
41 1 0.596081 0.955583 0.818328
215 1 0.66837 0.972956 0.964544
137 1 0.531855 0.847908 0.991291
204 1 0.93558 0.861496 0.884315
261 1 0.799362 0.885671 0.810021
283 1 0.801756 0.871092 0.973274
