ITEM: TIMESTEP
0
ITEM: NUMBER OF ATOMS
360
ITEM: BOX BOUNDS pp pp pp
0.0000000000000000e+00 6.6943295008216896e+00
0.0000000000000000e+00 6.6943295008216896e+00
0.0000000000000000e+00 6.6943295008216896e+00
ITEM: ATOMS id type xs ys zs
1 1 0 0 0
2 1 0.111572 0.111572 0
3 1 0.111572 0 0.111572
4 1 0 0.111572 0.111572
5 1 0.223144 0 0
8 1 0.223144 0.111572 0.111572
11 1 0 0.223144 0
13 1 0.111572 0.223144 0.111572
15 1 0.223144 0.223144 0
6 1 0.334716 0.111572 0
7 1 0.334716 0 0.111572
9 1 0.446289 0 0
10 1 0.446289 0.111572 0.111572
17 1 0.334716 0.223144 0.111572
19 1 0.446289 0.223144 0
12 1 0.111572 0.334716 0
14 1 0 0.334716 0.111572
18 1 0.223144 0.334716 0.111572
21 1 0 0.446289 0
22 1 0.111572 0.446289 0.111572
23 1 0.223144 0.446289 0
16 1 0.334716 0.334716 0
20 1 0.446289 0.334716 0.111572
24 1 0.334716 0.446289 0.111572
25 1 0.446289 0.446289 0
26 1 0 0 0.223144
27 1 0.111572 0.111572 0.223144
28 1 0.111572 0 0.334716
29 1 0 0.111572 0.334716
30 1 0.223144 0 0.223144
33 1 0.223144 0.111572 0.334716
36 1 0 0.223144 0.223144
38 1 0.111572 0.223144 0.334716
40 1 0.223144 0.223144 0.223144
31 1 0.334716 0.111572 0.223144
32 1 0.334716 0 0.334716
34 1 0.446289 0 0.223144
35 1 0.446289 0.111572 0.334716
42 1 0.334716 0.223144 0.334716
44 1 0.446289 0.223144 0.223144
37 1 0.111572 0.334716 0.223144
39 1 0 0.334716 0.334716
43 1 0.223144 0.334716 0.334716
46 1 0 0.446289 0.223144
47 1 0.111572 0.446289 0.334716
48 1 0.223144 0.446289 0.223144
41 1 0.334716 0.334716 0.223144
45 1 0.446289 0.334716 0.334716
49 1 0.334716 0.446289 0.334716
50 1 0.446289 0.446289 0.223144
51 1 0 0 0.446289
52 1 0.111572 0.111572 0.446289
53 1 0.111572 0 0.557861
54 1 0 0.111572 0.557861
55 1 0.223144 0 0.446289
58 1 0.223144 0.111572 0.557861
61 1 0 0.223144 0.446289
63 1 0.111572 0.223144 0.557861
65 1 0.223144 0.223144 0.446289
56 1 0.334716 0.111572 0.446289
57 1 0.334716 0 0.557861
59 1 0.446289 0 0.446289
60 1 0.446289 0.111572 0.557861
67 1 0.334716 0.223144 0.557861
69 1 0.446289 0.223144 0.446289
62 1 0.111572 0.334716 0.446289
64 1 0 0.334716 0.557861
68 1 0.223144 0.334716 0.557861
71 1 0 0.446289 0.446289
72 1 0.111572 0.446289 0.557861
73 1 0.223144 0.446289 0.446289
66 1 0.334716 0.334716 0.446289
70 1 0.446289 0.334716 0.557861
74 1 0.334716 0.446289 0.557861
75 1 0.446289 0.446289 0.446289
76 1 0 0 0.669433
77 1 0.111572 0.111572 0.669433
78 1 0.111572 0 0.781005
79 1 0 0.111572 0.781005
80 1 0.223144 0 0.669433
83 1 0.223144 0.111572 0.781005
86 1 0 0.223144 0.669433
88 1 0.111572 0.223144 0.781005
90 1 0.223144 0.223144 0.669433
81 1 0.334716 0.111572 0.669433
82 1 0.334716 0 0.781005
84 1 0.446289 0 0.669433
85 1 0.446289 0.111572 0.781005
92 1 0.334716 0.223144 0.781005
94 1 0.446289 0.223144 0.669433
87 1 0.111572 0.334716 0.669433
89 1 0 0.334716 0.781005
93 1 0.223144 0.334716 0.781005
96 1 0 0.446289 0.669433
97 1 0.111572 0.446289 0.781005
98 1 0.223144 0.446289 0.669433
91 1 0.334716 0.334716 0.669433
95 1 0.446289 0.334716 0.781005
99 1 0.334716 0.446289 0.781005
100 1 0.446289 0.446289 0.669433
101 1 0 0 0.892577
102 1 0.111572 0.111572 0.892577
103 1 0.223144 0 0.892577
106 1 0 0.223144 0.892577
108 1 0.223144 0.223144 0.892577
104 1 0.334716 0.111572 0.892577
105 1 0.446289 0 0.892577
110 1 0.446289 0.223144 0.892577
107 1 0.111572 0.334716 0.892577
111 1 0 0.446289 0.892577
112 1 0.223144 0.446289 0.892577
109 1 0.334716 0.334716 0.892577
113 1 0.446289 0.446289 0.892577
114 1 0.111572 0.557861 0
115 1 0 0.557861 0.111572
117 1 0.223144 0.557861 0.111572
119 1 0 0.669433 0
121 1 0.111572 0.669433 0.111572
123 1 0.223144 0.669433 0
116 1 0.334716 0.557861 0
118 1 0.446289 0.557861 0.111572
125 1 0.334716 0.669433 0.111572
127 1 0.446289 0.669433 0
120 1 0.111572 0.781005 0
122 1 0 0.781005 0.111572
126 1 0.223144 0.781005 0.111572
129 1 0 0.892577 0
130 1 0.111572 0.892577 0.111572
131 1 0.223144 0.892577 0
124 1 0.334716 0.781005 0
128 1 0.446289 0.781005 0.111572
132 1 0.334716 0.892577 0.111572
133 1 0.446289 0.892577 0
134 1 0.111572 0.557861 0.223144
135 1 0 0.557861 0.334716
137 1 0.223144 0.557861 0.334716
139 1 0 0.669433 0.223144
141 1 0.111572 0.669433 0.334716
143 1 0.223144 0.669433 0.223144
136 1 0.334716 0.557861 0.223144
138 1 0.446289 0.557861 0.334716
145 1 0.334716 0.669433 0.334716
147 1 0.446289 0.669433 0.223144
140 1 0.111572 0.781005 0.223144
142 1 0 0.781005 0.334716
146 1 0.223144 0.781005 0.334716
149 1 0 0.892577 0.223144
150 1 0.111572 0.892577 0.334716
151 1 0.223144 0.892577 0.223144
144 1 0.334716 0.781005 0.223144
148 1 0.446289 0.781005 0.334716
152 1 0.334716 0.892577 0.334716
153 1 0.446289 0.892577 0.223144
154 1 0.111572 0.557861 0.446289
155 1 0 0.557861 0.557861
157 1 0.223144 0.557861 0.557861
159 1 0 0.669433 0.446289
161 1 0.111572 0.669433 0.557861
163 1 0.223144 0.669433 0.446289
156 1 0.334716 0.557861 0.446289
158 1 0.446289 0.557861 0.557861
165 1 0.334716 0.669433 0.557861
167 1 0.446289 0.669433 0.446289
160 1 0.111572 0.781005 0.446289
162 1 0 0.781005 0.557861
166 1 0.223144 0.781005 0.557861
169 1 0 0.892577 0.446289
170 1 0.111572 0.892577 0.557861
171 1 0.223144 0.892577 0.446289
164 1 0.334716 0.781005 0.446289
168 1 0.446289 0.781005 0.557861
172 1 0.334716 0.892577 0.557861
173 1 0.446289 0.892577 0.446289
174 1 0.111572 0.557861 0.669433
175 1 0 0.557861 0.781005
177 1 0.223144 0.557861 0.781005
179 1 0 0.669433 0.669433
181 1 0.111572 0.669433 0.781005
183 1 0.223144 0.669433 0.669433
176 1 0.334716 0.557861 0.669433
178 1 0.446289 0.557861 0.781005
185 1 0.334716 0.669433 0.781005
187 1 0.446289 0.669433 0.669433
180 1 0.111572 0.781005 0.669433
182 1 0 0.781005 0.781005
186 1 0.223144 0.781005 0.781005
189 1 0 0.892577 0.669433
190 1 0.111572 0.892577 0.781005
191 1 0.223144 0.892577 0.669433
184 1 0.334716 0.781005 0.669433
188 1 0.446289 0.781005 0.781005
192 1 0.334716 0.892577 0.781005
193 1 0.446289 0.892577 0.669433
194 1 0.111572 0.557861 0.892577
196 1 0 0.669433 0.892577
198 1 0.223144 0.669433 0.892577
195 1 0.334716 0.557861 0.892577
200 1 0.446289 0.669433 0.892577
197 1 0.111572 0.781005 0.892577
201 1 0 0.892577 0.892577
202 1 0.223144 0.892577 0.892577
199 1 0.334716 0.781005 0.892577
203 1 0.446289 0.892577 0.892577
204 1 0.557861 0.111572 0
205 1 0.557861 0 0.111572
206 1 0.669433 0 0
209 1 0.669433 0.111572 0.111572
213 1 0.557861 0.223144 0.111572
214 1 0.669433 0.223144 0
207 1 0.781005 0.111572 0
208 1 0.781005 0 0.111572
210 1 0.892577 0 0
211 1 0.892577 0.111572 0.111572
216 1 0.781005 0.223144 0.111572
218 1 0.892577 0.223144 0
212 1 0.557861 0.334716 0
217 1 0.669433 0.334716 0.111572
220 1 0.557861 0.446289 0.111572
221 1 0.669433 0.446289 0
215 1 0.781005 0.334716 0
219 1 0.892577 0.334716 0.111572
222 1 0.781005 0.446289 0.111572
223 1 0.892577 0.446289 0
224 1 0.557861 0.111572 0.223144
225 1 0.557861 0 0.334716
226 1 0.669433 0 0.223144
229 1 0.669433 0.111572 0.334716
233 1 0.557861 0.223144 0.334716
234 1 0.669433 0.223144 0.223144
227 1 0.781005 0.111572 0.223144
228 1 0.781005 0 0.334716
230 1 0.892577 0 0.223144
231 1 0.892577 0.111572 0.334716
236 1 0.781005 0.223144 0.334716
238 1 0.892577 0.223144 0.223144
232 1 0.557861 0.334716 0.223144
237 1 0.669433 0.334716 0.334716
240 1 0.557861 0.446289 0.334716
241 1 0.669433 0.446289 0.223144
235 1 0.781005 0.334716 0.223144
239 1 0.892577 0.334716 0.334716
242 1 0.781005 0.446289 0.334716
243 1 0.892577 0.446289 0.223144
244 1 0.557861 0.111572 0.446289
245 1 0.557861 0 0.557861
246 1 0.669433 0 0.446289
249 1 0.669433 0.111572 0.557861
253 1 0.557861 0.223144 0.557861
254 1 0.669433 0.223144 0.446289
247 1 0.781005 0.111572 0.446289
248 1 0.781005 0 0.557861
250 1 0.892577 0 0.446289
251 1 0.892577 0.111572 0.557861
256 1 0.781005 0.223144 0.557861
258 1 0.892577 0.223144 0.446289
252 1 0.557861 0.334716 0.446289
257 1 0.669433 0.334716 0.557861
260 1 0.557861 0.446289 0.557861
261 1 0.669433 0.446289 0.446289
255 1 0.781005 0.334716 0.446289
259 1 0.892577 0.334716 0.557861
262 1 0.781005 0.446289 0.557861
263 1 0.892577 0.446289 0.446289
264 1 0.557861 0.111572 0.669433
265 1 0.557861 0 0.781005
266 1 0.669433 0 0.669433
269 1 0.669433 0.111572 0.781005
273 1 0.557861 0.223144 0.781005
274 1 0.669433 0.223144 0.669433
267 1 0.781005 0.111572 0.669433
268 1 0.781005 0 0.781005
270 1 0.892577 0 0.669433
271 1 0.892577 0.111572 0.781005
276 1 0.781005 0.223144 0.781005
278 1 0.892577 0.223144 0.669433
272 1 0.557861 0.334716 0.669433
277 1 0.669433 0.334716 0.781005
280 1 0.557861 0.446289 0.781005
281 1 0.669433 0.446289 0.669433
275 1 0.781005 0.334716 0.669433
279 1 0.892577 0.334716 0.781005
282 1 0.781005 0.446289 0.781005
283 1 0.892577 0.446289 0.669433
284 1 0.557861 0.111572 0.892577
285 1 0.669433 0 0.892577
289 2 0.669433 0.223144 0.892577
286 1 0.781005 0.111572 0.892577
287 1 0.892577 0 0.892577
291 2 0.892577 0.223144 0.892577
288 1 0.557861 0.334716 0.892577
292 2 0.669433 0.446289 0.892577
290 2 0.781005 0.334716 0.892577
293 2 0.892577 0.446289 0.892577
294 2 0.557861 0.557861 0
296 2 0.669433 0.557861 0.111572
299 2 0.557861 0.669433 0.111572
300 2 0.669433 0.669433 0
295 2 0.781005 0.557861 0
297 2 0.892577 0.557861 0.111572
302 2 0.781005 0.669433 0.111572
304 2 0.892577 0.669433 0
298 2 0.557861 0.781005 0
303 2 0.669433 0.781005 0.111572
306 2 0.557861 0.892577 0.111572
307 2 0.669433 0.892577 0
301 2 0.781005 0.781005 0
305 2 0.892577 0.781005 0.111572
308 2 0.781005 0.892577 0.111572
309 2 0.892577 0.892577 0
310 2 0.557861 0.557861 0.223144
312 2 0.669433 0.557861 0.334716
315 2 0.557861 0.669433 0.334716
316 2 0.669433 0.669433 0.223144
311 2 0.781005 0.557861 0.223144
313 2 0.892577 0.557861 0.334716
318 2 0.781005 0.669433 0.334716
320 2 0.892577 0.669433 0.223144
314 2 0.557861 0.781005 0.223144
319 2 0.669433 0.781005 0.334716
322 2 0.557861 0.892577 0.334716
323 2 0.669433 0.892577 0.223144
317 2 0.781005 0.781005 0.223144
321 2 0.892577 0.781005 0.334716
324 2 0.781005 0.892577 0.334716
325 2 0.892577 0.892577 0.223144
326 2 0.557861 0.557861 0.446289
328 2 0.669433 0.557861 0.557861
331 2 0.557861 0.669433 0.557861
332 2 0.669433 0.669433 0.446289
327 2 0.781005 0.557861 0.446289
329 2 0.892577 0.557861 0.557861
334 2 0.781005 0.669433 0.557861
336 2 0.892577 0.669433 0.446289
330 2 0.557861 0.781005 0.446289
335 2 0.669433 0.781005 0.557861
338 2 0.557861 0.892577 0.557861
339 2 0.669433 0.892577 0.446289
333 2 0.781005 0.781005 0.446289
337 2 0.892577 0.781005 0.557861
340 2 0.781005 0.892577 0.557861
341 2 0.892577 0.892577 0.446289
342 2 0.557861 0.557861 0.669433
344 2 0.669433 0.557861 0.781005
347 2 0.557861 0.669433 0.781005
348 2 0.669433 0.669433 0.669433
343 2 0.781005 0.557861 0.669433
345 2 0.892577 0.557861 0.781005
350 2 0.781005 0.669433 0.781005
352 2 0.892577 0.669433 0.669433
346 2 0.557861 0.781005 0.669433
351 2 0.669433 0.781005 0.781005
354 2 0.557861 0.892577 0.781005
355 2 0.669433 0.892577 0.669433
349 2 0.781005 0.781005 0.669433
353 2 0.892577 0.781005 0.781005
356 2 0.781005 0.892577 0.781005
357 2 0.892577 0.892577 0.669433
358 2 0.557861 0.557861 0.892577
359 2 0.781005 0.557861 0.892577
360 2 0.557861 0.781005 0.892577
ITEM: TIMESTEP
10000
ITEM: NUMBER OF ATOMS
360
ITEM: BOX BOUNDS pp pp pp
0.0000000000000000e+00 6.6943295008216896e+00
0.0000000000000000e+00 6.6943295008216896e+00
0.0000000000000000e+00 6.6943295008216896e+00
ITEM: ATOMS id type xs ys zs
93 1 0.164888 0.102858 0.140377
207 1 0.036444 0.0999318 0.101852
309 2 0.065636 0.225164 0.097898
174 1 0.229759 0.130442 0.0253605
258 1 0.498102 0.0106722 0.0547095
55 1 0.476292 0.138319 0.131822
108 1 0.317613 0.211088 0.192121
92 1 0.372188 0.194728 0.0507404
190 1 0.349504 0.0726441 0.0913593
241 1 0.0507319 0.316553 0.0470316
74 1 0.0380614 0.487142 0.0846481
79 1 0.142794 0.392802 0.10564
260 1 0.443112 0.254876 0.161133
264 1 0.278459 0.359408 0.119407
2 1 0.438852 0.326857 0.0555796
84 1 0.415417 0.418115 0.154469
150 1 0.499806 0.451545 0.0202286
176 1 0.366465 0.475911 0.0473553
290 2 0.164379 0.0328519 0.251753
157 1 0.135355 0.180578 0.246004
25 1 0.0626677 0.0874859 0.336181
246 1 0.0174232 0.16144 0.235135
70 1 0.0807448 0.238173 0.38611
300 2 0.162263 0.124889 0.398941
82 1 0.495181 0.0113069 0.324713
7 1 0.37372 0.066712 0.300542
219 1 0.322396 0.179712 0.382348
14 1 0.455574 0.169199 0.291968
169 1 0.272974 0.0499036 0.200475
358 2 0.10843 0.394281 0.362937
282 1 0.13094 0.468905 0.25363
336 2 0.156924 0.287306 0.214477
127 1 0.240562 0.297898 0.321154
274 1 0.310573 0.444652 0.359505
299 2 0.489089 0.251599 0.385608
105 1 0.273601 0.401289 0.237583
5 1 0.39051 0.354146 0.265355
155 1 0.392848 0.323299 0.382143
319 2 0.103189 0.205899 0.519795
42 1 0.0135633 0.0919914 0.536691
101 1 0.143675 0.0934353 0.53216
276 1 0.457476 0.0108598 0.503296
275 1 0.351263 0.0609976 0.581916
266 1 0.498496 0.223363 0.490668
164 1 0.404352 0.10757 0.439782
356 2 0.457682 0.131171 0.550215
132 1 0.261215 0.045137 0.468589
158 1 0.341384 0.225359 0.499669
315 2 0.237991 0.495947 0.449817
332 2 0.0341587 0.353669 0.58154
16 1 0.0618505 0.354367 0.473818
220 1 0.204363 0.25784 0.467713
185 1 0.239157 0.379625 0.467221
143 1 0.438742 0.349375 0.503519
340 2 0.350979 0.446001 0.536427
59 1 0.244359 0.189975 0.695216
62 1 0.05205 0.218591 0.631888
195 1 0.146529 0.15767 0.778063
71 1 0.014433 0.0798029 0.729221
67 1 0.490313 0.038988 0.672125
109 1 0.361957 0.014749 0.717471
342 2 0.304959 0.162934 0.602314
142 1 0.400631 0.158681 0.66729
291 2 0.491116 0.140376 0.751735
278 1 0.20603 0.386662 0.794289
231 1 0.224059 0.282769 0.608748
45 1 0.137665 0.272954 0.708905
196 1 0.0853024 0.474859 0.643683
218 1 0.335255 0.467128 0.739268
179 1 0.440311 0.416848 0.786287
197 1 0.322755 0.363319 0.615899
81 1 0.454286 0.361402 0.680552
34 1 0.0863532 0.0958373 0.969882
4 1 0.0373548 0.229527 0.937917
303 2 0.167315 0.211005 0.918723
357 2 0.0654778 0.142761 0.869501
247 1 0.219904 0.0823379 0.918431
122 1 0.00476028 0.0373918 0.854959
263 1 0.320626 0.220407 0.803659
321 2 0.300406 0.199314 0.963329
294 2 0.350841 0.100252 0.972427
15 1 0.429856 0.179884 0.932194
272 1 0.341466 0.0316115 0.887045
306 2 0.266781 0.103607 0.801095
352 2 0.0976706 0.382258 0.82253
163 1 0.218331 0.304687 0.960033
208 1 0.105345 0.398185 0.930834
182 1 0.236674 0.460236 0.978943
134 1 0.442626 0.440103 0.905583
334 2 0.32399 0.410332 0.832091
222 1 0.350385 0.314182 0.962243
159 1 0.484803 0.276208 0.821004
3 1 0.232881 0.638137 0.116792
355 2 0.121024 0.712389 0.154689
193 1 0.11448 0.598828 0.0380768
348 2 0.0872811 0.584146 0.162189
115 1 0.186391 0.513415 0.115788
292 2 0.0432597 0.687258 0.0225187
147 1 0.440383 0.680828 0.103655
313 2 0.44476 0.560281 0.0373921
135 1 0.47681 0.53705 0.136679
112 1 0.280093 0.612431 0.00184373
359 2 0.346285 0.52403 0.151363
308 2 0.464281 0.74195 0.00864876
244 1 0.333106 0.745093 0.00357895
234 1 0.0797245 0.817665 0.0762012
24 1 0.221141 0.761218 0.0918858
119 1 0.0865455 0.970796 0.106127
50 1 0.0450805 0.860451 0.191582
40 1 0.171445 0.956687 0.00315926
51 1 0.27189 0.898641 0.0927055
318 2 0.338956 0.76196 0.104971
154 1 0.412112 0.832254 0.136004
27 1 0.295235 0.995798 0.0123697
350 2 0.487493 0.77207 0.196994
333 2 0.216889 0.525199 0.227079
99 1 0.228833 0.671045 0.394244
80 1 0.133309 0.721324 0.262343
167 1 0.22522 0.622544 0.256316
58 1 0.0722745 0.535631 0.3713
330 2 0.006175 0.632896 0.31233
21 1 0.0467874 0.725383 0.396171
198 1 0.349235 0.672699 0.225833
211 1 0.338308 0.589789 0.368595
265 1 0.463752 0.616447 0.353994
18 1 0.393041 0.548241 0.247229
149 1 0.0194477 0.987582 0.239487
284 1 0.116531 0.939952 0.339538
20 1 0.2044 0.817439 0.362477
126 1 0.408993 0.843484 0.361219
44 1 0.4837 0.959125 0.21788
91 1 0.342574 0.75563 0.314875
233 1 0.299885 0.936252 0.280804
250 1 0.257998 0.814986 0.225842
76 1 0.0381736 0.720563 0.569732
312 2 0.198083 0.696038 0.491896
68 1 0.0393256 0.577194 0.556841
287 1 0.167631 0.570794 0.509247
328 2 0.473548 0.705241 0.425687
151 1 0.300136 0.576346 0.515228
214 1 0.406373 0.502897 0.435808
181 1 0.368461 0.716817 0.493902
225 1 0.0234729 0.944987 0.443174
29 1 0.0984195 0.833175 0.459522
251 1 0.220658 0.95779 0.585519
293 2 0.223251 0.895083 0.462112
224 1 0.188744 0.821928 0.551185
320 2 0.141716 0.998989 0.42939
221 1 0.342999 0.861514 0.565478
133 1 0.333591 0.953917 0.441563
140 1 0.456324 0.83636 0.472945
23 1 0.472188 0.777989 0.59637
325 2 0.0528737 0.741892 0.75285
26 1 0.0534944 0.598195 0.690431
289 2 0.21662 0.658461 0.641172
183 1 0.194744 0.523546 0.711053
200 1 0.134936 0.633848 0.783678
213 1 0.378673 0.657598 0.626243
152 1 0.31604 0.63137 0.762085
46 1 0.299779 0.50817 0.612011
8 1 0.387952 0.745255 0.767966
240 1 0.490463 0.542699 0.726351
130 1 0.420466 0.502045 0.626482
243 1 0.090056 0.870037 0.66079
273 1 0.239205 0.971106 0.783221
161 1 0.167479 0.767534 0.707484
33 1 0.101163 0.990756 0.639796
139 1 0.0598387 0.850925 0.782458
329 2 0.27909 0.839462 0.679839
170 1 0.415244 0.92969 0.640769
13 1 0.444657 0.852903 0.77254
248 1 0.157668 0.710079 0.89612
223 1 0.0392946 0.60028 0.887673
22 1 0.16105 0.518945 0.860417
77 1 0.449673 0.563477 0.835513
124 1 0.366516 0.642279 0.897207
37 1 0.297166 0.533274 0.897112
178 1 0.000822901 0.981891 0.984504
269 1 0.188241 0.810502 0.977567
28 1 0.213586 0.885308 0.872267
192 1 0.0537281 0.769778 0.92784
49 1 0.104095 0.993589 0.800195
173 1 0.0602214 0.892279 0.918695
212 1 0.454862 0.995278 0.843879
128 1 0.496222 0.863475 0.898623
335 2 0.295523 0.844942 0.940731
310 2 0.401448 0.774216 0.875961
121 1 0.256031 0.752088 0.819075
148 1 0.41295 0.895936 0.99936
343 2 0.673673 0.0220471 0.0595127
19 1 0.683227 0.230174 0.173421
283 1 0.705904 0.154164 0.0331603
53 1 0.566673 0.155541 0.0142593
187 1 0.608377 0.107827 0.169993
72 1 0.878558 0.102914 0.090148
189 1 0.785778 0.102074 0.177101
138 1 0.946265 0.232572 0.062557
205 1 0.565271 0.324372 0.0816494
252 1 0.710077 0.494893 0.191957
104 1 0.720148 0.369565 0.14873
216 1 0.764185 0.473631 0.0600504
346 2 0.805929 0.369517 0.0171322
113 1 0.878971 0.429566 0.0574675
10 1 0.817739 0.28389 0.0988163
61 1 0.990524 0.376125 0.1383
351 2 0.514027 0.0638465 0.224828
295 2 0.593439 0.187556 0.329839
255 1 0.569632 0.243255 0.237835
202 1 0.720752 0.145722 0.345846
87 1 0.926702 0.163612 0.375524
175 1 0.816041 0.203903 0.256179
194 1 0.90256 0.0895846 0.248526
110 1 0.563501 0.412979 0.220011
85 1 0.716924 0.312709 0.256402
203 1 0.699944 0.463806 0.334998
98 1 0.560641 0.370803 0.377753
316 2 0.834744 0.403423 0.344483
89 1 0.996487 0.318256 0.29618
201 1 0.869907 0.334232 0.228636
65 1 0.56562 0.0968471 0.410435
339 2 0.51801 0.0101401 0.575185
48 1 0.656474 0.226275 0.463278
90 1 0.55462 0.13953 0.587578
230 1 0.975705 0.208943 0.488204
166 1 0.854261 0.106635 0.576942
97 1 0.774414 0.194257 0.489302
107 1 0.922779 0.0399659 0.437021
324 2 0.789652 0.0555091 0.418772
238 1 0.733416 0.40605 0.498766
280 1 0.582933 0.371937 0.514702
111 1 0.714132 0.329063 0.404533
259 1 0.657983 0.297066 0.581622
102 1 0.660505 0.480306 0.548125
347 2 0.531789 0.481061 0.537032
73 1 0.903556 0.30441 0.585611
69 1 0.864568 0.446734 0.557273
31 1 0.84689 0.322742 0.46343
32 1 0.964516 0.42083 0.418101
160 1 0.700114 0.135951 0.60012
131 1 0.655892 0.157146 0.738013
129 1 0.62114 0.0492749 0.685454
30 1 0.828251 0.108542 0.741664
253 1 0.773323 0.246837 0.789631
41 1 0.768123 0.00793805 0.625776
11 1 0.89617 0.202184 0.661607
338 2 0.693376 0.432801 0.726669
100 1 0.648564 0.313062 0.729775
188 1 0.567512 0.452775 0.643026
307 2 0.770403 0.348947 0.698456
237 1 0.986124 0.346427 0.684518
47 1 0.857355 0.417256 0.682584
235 1 0.978224 0.456696 0.781326
302 2 0.785318 0.287124 0.603627
168 1 0.666392 0.177195 0.889498
172 1 0.673403 0.0193174 0.833839
341 2 0.577202 0.00879321 0.884045
12 1 0.562498 0.119583 0.843191
60 1 0.843455 0.190228 0.911492
35 1 0.948733 0.137224 0.975869
314 2 0.762179 0.110276 0.834464
165 1 0.834652 0.0154262 0.93891
317 2 0.905369 0.106618 0.833686
78 1 0.945126 0.207814 0.824505
285 1 0.729577 0.281466 0.942733
209 1 0.53702 0.353305 0.920296
322 2 0.605656 0.481197 0.926896
9 1 0.681549 0.410554 0.962107
88 1 0.979444 0.439043 0.982036
94 1 0.786299 0.392458 0.889937
118 1 0.900871 0.352464 0.826209
286 1 0.911926 0.306347 0.975849
137 1 0.632476 0.66428 0.0408641
227 1 0.619126 0.530723 0.0802566
43 1 0.574261 0.677543 0.175542
301 2 0.731178 0.70566 0.149713
331 2 0.814091 0.617428 0.18407
54 1 0.904101 0.557659 0.166852
270 1 0.931269 0.745882 0.105331
236 1 0.813635 0.655791 0.0670546
162 1 0.997089 0.665185 0.197167
326 2 0.651777 0.956225 0.160799
117 1 0.681841 0.874835 0.054277
311 2 0.53736 0.771937 0.095977
103 1 0.566326 0.856282 0.151471
106 1 0.769391 0.812084 0.13539
261 1 0.781406 0.990952 0.0548906
360 2 0.782118 0.94938 0.154899
184 1 0.927619 0.912306 0.0585469
337 2 0.868854 0.832352 0.191242
228 1 0.881415 0.996799 0.167099
297 2 0.620207 0.688524 0.311909
120 1 0.670709 0.598043 0.33597
52 1 0.548798 0.747519 0.361041
75 1 0.559946 0.514673 0.310311
171 1 0.682746 0.74242 0.384038
298 2 0.506 0.600151 0.231179
145 1 0.894941 0.726722 0.247728
123 1 0.781223 0.690725 0.312527
136 1 0.810074 0.560906 0.368996
66 1 0.912929 0.507874 0.294329
239 1 0.671979 0.782776 0.234479
215 1 0.596383 0.864289 0.311793
271 1 0.727583 0.868525 0.387293
36 1 0.718398 0.999843 0.243407
210 1 0.887836 0.814124 0.357285
262 1 0.83684 0.943105 0.300379
141 1 0.955912 0.927271 0.33641
146 1 0.77976 0.809054 0.283504
63 1 0.659757 0.588656 0.479478
191 1 0.644122 0.713345 0.527073
217 1 0.506703 0.609825 0.561869
144 1 0.812326 0.707418 0.44777
242 1 0.915293 0.674115 0.556085
226 1 0.919085 0.554067 0.467574
83 1 0.786976 0.565459 0.515633
206 1 0.578214 0.880468 0.545701
288 1 0.627187 0.978622 0.428424
344 2 0.696864 0.892107 0.498109
268 1 0.715714 0.828583 0.578607
199 1 0.783573 0.975729 0.498631
323 2 0.855339 0.922823 0.582392
57 1 0.975074 0.975456 0.574995
256 1 0.856049 0.870191 0.480003
327 2 0.713012 0.736599 0.673027
125 1 0.559485 0.697706 0.632856
64 1 0.702414 0.504583 0.66108
249 1 0.672732 0.684607 0.761148
95 1 0.753195 0.635714 0.648414
6 1 0.817241 0.517939 0.766499
257 1 0.901177 0.551396 0.646513
180 1 0.859652 0.658029 0.720587
354 2 0.652703 0.946937 0.673759
232 1 0.571653 0.807164 0.707274
281 1 0.549198 0.932726 0.719548
177 1 0.895147 0.776672 0.790695
245 1 0.959461 0.76048 0.671786
254 1 0.973159 0.927269 0.718189
277 1 0.836588 0.782021 0.631767
56 1 0.789471 0.984572 0.772722
86 1 0.508227 0.707052 0.842237
17 1 0.53492 0.583179 0.96753
39 1 0.73804 0.54099 0.913961
153 1 0.58998 0.599631 0.828096
186 1 0.665166 0.684681 0.912079
345 2 0.553414 0.688164 0.942627
304 2 0.717001 0.632878 0.975537
116 1 0.65277 0.501499 0.803583
96 1 0.800514 0.662693 0.868804
114 1 0.942382 0.639396 0.809175
38 1 0.909213 0.712571 0.949996
229 1 0.853469 0.548081 0.981821
296 2 0.965042 0.544331 0.940641
353 2 0.638085 0.855513 0.86388
1 1 0.738427 0.927944 0.894317
156 1 0.591184 0.934941 0.989206
349 2 0.591973 0.827214 0.97472
267 1 0.913037 0.891898 0.8455
279 1 0.783389 0.804549 0.850615
204 1 0.796217 0.801134 0.974967
305 2 0.88629 0.842841 0.951104
