
include ${pot}.lmp
include kalj.lmp
units lj
atom_style atomic

variable dimensions equal 3
variable density equal 1.2
variable fraca equal 0.8

dimension ${dimensions}
dimension 3
read_restart ${prevbasename}.final.lmprestart.${prevsteps}
read_restart equil/kalj_T0.7_n360_v300_180000_1.final.lmprestart.${prevsteps}
read_restart equil/kalj_T0.7_n360_v300_180000_1.final.lmprestart.180000
Reading restart file ...
  restart file = 15 Sep 2022, LAMMPS = 15 Sep 2022
  restoring atom style atomic from restart
  orthogonal box = (0 0 0) to (6.6943295 6.6943295 6.6943295)
  2 by 2 by 5 MPI processor grid
  restoring pair style lj/cut from restart
  360 atoms
  read_restart CPU = 0.050 seconds
include ${pot}_particles.lmp
include kalj_particles.lmp
mass * 1.0 #  set mass 1.0 for all types

pair_style lj/cut 2.5
#pair coeffs type1 type2 eps sigma
pair_coeff 1 1 1.0 1.00 2.5
pair_coeff 1 2 1.5 0.80 2.0
pair_coeff 2 2 0.5 0.88 2.2
pair_modify shift yes
reset_timestep 0

print "Setting up annealing run"
Setting up annealing run
dump 1 all atom ${dumptime} ${basename}.lammpstrj
dump 1 all atom 70000 ${basename}.lammpstrj
dump 1 all atom 70000 equil/kalj_T0.65_n360_v300_350000_1.lammpstrj
#dump_modify 1 sort id scale no

restart ${restarttime} ${basename}.restart
restart 350000 ${basename}.restart
restart 350000 equil/kalj_T0.65_n360_v300_350000_1.restart
restart ${steps} ${basename}.final.lmprestart
restart 350000 ${basename}.final.lmprestart
restart 350000 equil/kalj_T0.65_n360_v300_350000_1.final.lmprestart

thermo ${thermotime}
thermo 70000
timestep ${timestep}
timestep 0.003

neighbor 0.5 bin
neigh_modify every 1 delay ${neighborstep} check yes
neigh_modify every 1 delay 25 check yes

velocity all create ${temp} ${id} dist gaussian
velocity all create 0.65 ${id} dist gaussian
velocity all create 0.65 1 dist gaussian
fix 1 all nvt temp ${temp} ${temp} ${taut}
fix 1 all nvt temp 0.65 ${temp} ${taut}
fix 1 all nvt temp 0.65 0.65 ${taut}
fix 1 all nvt temp 0.65 0.65 0.3
Resetting global fix info from restart file:
  fix style: nvt, fix ID: 1
run ${steps}
run 350000
Generated 0 of 1 mixed pair_coeff terms from geometric mixing rule
All restart file global fix info was re-assigned
Neighbor list info ...
  update: every = 1 steps, delay = 25 steps, check = yes
  max neighbors/atom: 2000, page size: 100000
  master list distance cutoff = 3
  ghost atom cutoff = 3
  binsize = 1.5, bins = 5 5 5
  1 neighbor lists, perpetual/occasional/extra = 1 0 0
  (1) pair lj/cut, perpetual
      attributes: half, newton on
      pair build: half/bin/atomonly/newton
      stencil: half/bin/3d
      bin: standard
Per MPI rank memory allocation (min/avg/max) = 4.08 | 4.08 | 4.081 Mbytes
   Step          Temp          E_pair         E_mol          TotEng         Press     
         0   0.65          -6.5475821      0             -5.5752904      6.2175786    
     70000   0.61920613    -6.6586997      0             -5.7324705      5.4114986    
    140000   0.62563033    -6.586563       0             -5.6507243      5.9955598    
    210000   0.62525329    -6.5674098      0             -5.6321351      6.1231524    
    280000   0.67100773    -6.6137282      0             -5.6100125      5.9156324    
    350000   0.68267045    -6.5905421      0             -5.5693809      5.8871934    
Loop time of 30.1963 on 20 procs for 350000 steps with 360 atoms

Performance: 3004340.859 tau/day, 11590.821 timesteps/s, 4.173 Matom-step/s
99.7% CPU use with 20 MPI tasks x 1 OpenMP threads

MPI task timing breakdown:
Section |  min time  |  avg time  |  max time  |%varavg| %total
---------------------------------------------------------------
Pair    | 2.5185     | 2.8982     | 3.273      |  12.9 |  9.60
Neigh   | 0.39982    | 0.43804    | 0.47869    |   3.5 |  1.45
Comm    | 22.358     | 22.964     | 23.523     |   6.7 | 76.05
Output  | 0.0021385  | 0.0021464  | 0.0021929  |   0.0 |  0.01
Modify  | 2.2978     | 3.147      | 3.9397     |  27.2 | 10.42
Other   |            | 0.7468     |            |       |  2.47

Nlocal:             18 ave          22 max          13 min
Histogram: 1 1 0 2 5 3 2 4 0 2
Nghost:         750.05 ave         765 max         738 min
Histogram: 2 1 4 4 3 1 0 2 2 1
Neighs:         1041.9 ave        1282 max         765 min
Histogram: 1 1 1 4 2 2 1 6 1 1

Total # of neighbors = 20838
Ave neighs/atom = 57.883333
Neighbor list builds = 10998
Dangerous builds = 421
Total wall time: 0:00:30
