ITEM: TIMESTEP
0
ITEM: NUMBER OF ATOMS
360
ITEM: BOX BOUNDS pp pp pp
0.0000000000000000e+00 6.6943295008216896e+00
0.0000000000000000e+00 6.6943295008216896e+00
0.0000000000000000e+00 6.6943295008216896e+00
ITEM: ATOMS id type xs ys zs
35 1 0.167202 0.164406 0.152937
127 1 0.042941 0.24295 0.142244
265 1 0.162691 0.07842 0.0257941
151 1 0.0116893 0.0939166 0.0741019
243 1 0.314487 0.148586 0.0752411
66 1 0.452358 0.0826623 0.11325
230 1 0.449823 0.228817 0.161421
312 2 0.253669 0.0488528 0.102375
325 2 0.427879 0.19159 0.0296013
32 1 0.21159 0.256694 0.0315226
13 1 0.0744435 0.368058 0.0420119
225 1 0.242391 0.405994 0.085741
346 2 0.165378 0.309927 0.139482
295 2 0.0120153 0.450063 0.118113
227 1 0.129384 0.497631 0.148444
354 2 0.4299 0.416131 0.107217
122 1 0.350337 0.400107 0.197785
198 1 0.358852 0.306959 0.0489047
155 1 0.0305852 0.0927971 0.23198
314 2 0.180574 0.0626383 0.237453
84 1 0.133946 0.24145 0.283372
21 1 0.132859 0.104132 0.363197
92 1 0.277803 0.242643 0.206104
286 1 0.278775 0.14811 0.357462
82 1 0.438173 0.127631 0.296124
81 1 0.322336 0.0785119 0.221045
231 1 0.0748333 0.368776 0.211647
15 1 0.213287 0.384523 0.272995
180 1 0.0493314 0.373986 0.377926
115 1 0.122154 0.497965 0.305199
341 2 0.173623 0.299539 0.394367
201 1 0.334694 0.439414 0.367657
77 1 0.388735 0.294184 0.303517
106 1 0.497662 0.355179 0.2192
157 1 0.187738 0.200146 0.479222
9 1 0.0985986 0.0802142 0.5138
47 1 0.0408847 0.234149 0.42576
167 1 0.251631 0.0627538 0.501203
28 1 0.326068 0.189601 0.538184
116 1 0.385896 0.00252248 0.577832
75 1 0.394328 0.0713634 0.439914
189 1 0.424108 0.222562 0.433229
186 1 0.484962 0.18826 0.566937
38 1 0.0829361 0.479053 0.532594
113 1 0.105313 0.327484 0.535795
50 1 0.194806 0.424181 0.436266
330 2 0.415188 0.406647 0.448539
285 1 0.30263 0.415894 0.540563
27 1 0.295236 0.305208 0.43138
68 1 0.440933 0.330849 0.534036
305 2 0.149412 0.170876 0.749567
1 1 0.13533 0.0270346 0.745904
252 1 0.208518 0.139108 0.641697
274 1 0.0808387 0.239525 0.656541
260 1 0.020123 0.104075 0.682107
126 1 0.254767 0.242988 0.753198
185 1 0.368713 0.124592 0.67309
220 1 0.278567 0.0852926 0.789057
320 2 0.498089 0.187085 0.692526
245 1 0.400746 0.22197 0.796015
323 2 0.124775 0.36054 0.659337
192 1 0.183932 0.384471 0.771645
93 1 0.19457 0.494224 0.637387
357 2 0.0518279 0.347883 0.78503
237 1 0.0676321 0.474268 0.71235
136 1 0.242719 0.293913 0.602932
351 2 0.471577 0.332963 0.773068
54 1 0.431683 0.431832 0.66755
85 1 0.386781 0.283962 0.659387
292 2 0.289638 0.396335 0.671809
59 1 0.343104 0.375195 0.788102
17 1 0.169077 0.156566 0.895018
26 1 0.024392 0.0822396 0.905128
73 1 0.065062 0.21222 0.998966
138 1 0.0419619 0.213339 0.817484
324 2 0.309469 0.0994368 0.93629
129 1 0.432343 0.107897 0.926866
209 1 0.311508 0.22658 0.92248
348 2 0.403256 0.0542082 0.81476
352 2 0.156325 0.436024 0.991125
108 1 0.0314599 0.441059 0.874923
96 1 0.130136 0.317358 0.906646
190 1 0.462349 0.277249 0.915932
97 1 0.448944 0.480838 0.819622
235 1 0.265336 0.383536 0.923688
144 1 0.415156 0.427023 0.976201
161 1 0.0993884 0.721678 0.110643
49 1 0.00852003 0.59964 0.168302
194 1 0.235591 0.648553 0.131313
251 1 0.0414279 0.543684 0.0250211
187 1 0.227107 0.54244 0.0122377
264 1 0.466407 0.646013 0.14511
275 1 0.350443 0.670755 0.00223252
87 1 0.367759 0.539425 0.0997181
177 1 0.0550322 0.96534 0.00703732
329 2 0.0996476 0.861825 0.101527
107 1 0.115076 0.982378 0.153889
273 1 0.207113 0.812474 0.170363
203 1 0.220409 0.917133 0.0591926
117 1 0.234575 0.762504 0.0204873
287 1 0.0207444 0.846248 0.199798
88 1 0.392229 0.938471 0.144444
139 1 0.374081 0.782894 0.121339
259 1 0.345059 0.998973 0.0171076
83 1 0.142063 0.646659 0.24807
270 1 0.242585 0.714105 0.378477
99 1 0.0784444 0.6635 0.391834
215 1 0.231707 0.572599 0.390035
150 1 0.436598 0.525977 0.23653
340 2 0.351923 0.564128 0.337914
170 1 0.350936 0.660734 0.260679
63 1 0.26606 0.532922 0.233835
244 1 0.491807 0.512021 0.383332
6 1 0.396339 0.670265 0.399154
79 1 0.127797 0.782088 0.298171
281 1 0.121915 0.96182 0.303658
125 1 0.208931 0.866862 0.395453
44 1 0.475514 0.751158 0.258936
267 1 0.319279 0.812722 0.285194
57 1 0.251153 0.947367 0.2105
46 1 0.420109 0.958669 0.326419
229 1 0.26878 0.993856 0.352041
184 1 0.134048 0.62163 0.525669
335 2 0.0308091 0.704837 0.513761
311 2 0.102145 0.531191 0.421068
317 2 0.229531 0.527294 0.513127
19 1 0.379874 0.544179 0.495781
223 1 0.463155 0.72502 0.544579
303 2 0.489299 0.605991 0.471798
149 1 0.281676 0.627914 0.575535
234 1 0.191628 0.910967 0.544599
72 1 0.152044 0.765413 0.486301
297 2 0.163499 0.994645 0.427553
101 1 0.0473974 0.948248 0.453341
191 1 0.00433929 0.830729 0.556641
254 1 0.355984 0.908187 0.444643
110 1 0.317084 0.77704 0.503505
322 2 0.31359 0.896411 0.581851
64 1 0.468844 0.810968 0.407792
56 1 0.0791245 0.71246 0.640111
342 2 0.0845778 0.579998 0.641773
114 1 0.176651 0.60933 0.738258
3 1 0.433081 0.585177 0.631884
154 1 0.324562 0.676402 0.731174
293 2 0.360359 0.74683 0.620138
148 1 0.470485 0.718479 0.722752
301 2 0.425742 0.614255 0.765396
299 2 0.334493 0.517635 0.600554
134 1 0.316415 0.517147 0.726391
4 1 0.221389 0.757617 0.636192
328 2 0.113751 0.836433 0.610672
355 2 0.247517 0.9542 0.790135
241 1 0.171554 0.865017 0.732942
315 2 0.234137 0.75641 0.764147
74 1 0.0718296 0.957368 0.623088
142 1 0.0180816 0.839138 0.703292
94 1 0.419968 0.970397 0.725792
60 1 0.266556 0.990965 0.665109
24 1 0.316999 0.84727 0.714079
327 2 0.455119 0.844442 0.745681
216 1 0.426909 0.855118 0.618106
152 1 0.0575682 0.597606 0.837395
276 1 0.0989043 0.735925 0.816107
257 1 0.127703 0.650312 0.962148
103 1 0.178228 0.509201 0.87178
272 1 0.251156 0.670998 0.867167
140 1 0.444584 0.652056 0.885545
39 1 0.325344 0.546622 0.8895
208 1 0.191748 0.990475 0.903621
5 1 0.0995907 0.820777 0.973741
132 1 0.0584041 0.922652 0.862268
262 1 0.22132 0.838519 0.874761
277 1 0.360257 0.782504 0.852396
153 1 0.353808 0.931479 0.87749
358 2 0.295802 0.864324 0.973219
232 1 0.418639 0.84815 0.985928
266 1 0.697109 0.24333 0.114106
183 1 0.633338 0.0419208 0.0943026
36 1 0.55867 0.178989 0.0618537
162 1 0.731233 0.133087 0.0124375
159 1 0.758862 0.10814 0.159345
156 1 0.903069 0.168309 0.169449
165 1 0.861364 0.040988 0.035658
263 1 0.520633 0.342639 0.0658881
333 2 0.613289 0.449048 0.0399081
112 1 0.646589 0.383306 0.145086
304 2 0.582317 0.269618 0.16594
166 1 0.525962 0.495159 0.1217
34 1 0.930368 0.425153 0.0182611
76 1 0.933112 0.358618 0.154046
307 2 0.958827 0.28126 0.0435721
212 1 0.831925 0.281601 0.0530878
62 1 0.792751 0.428173 0.107972
296 2 0.719219 0.183513 0.253342
221 1 0.697665 0.147883 0.382593
210 1 0.551931 0.0771605 0.382868
278 1 0.69349 0.0288628 0.278094
53 1 0.595593 0.143116 0.231104
291 2 0.534208 0.235845 0.31062
160 1 0.839657 0.141354 0.29948
22 1 0.96881 0.248296 0.274697
300 2 0.910026 0.0390858 0.248682
256 1 0.993233 0.0777549 0.383503
146 1 0.740547 0.416134 0.282054
219 1 0.641011 0.292108 0.277551
43 1 0.587291 0.458369 0.295821
248 1 0.510163 0.357777 0.37529
250 1 0.769752 0.282392 0.381533
350 2 0.851171 0.422953 0.21594
10 1 0.892462 0.37058 0.344156
42 1 0.95843 0.482963 0.2467
242 1 0.807437 0.285079 0.217471
91 1 0.626701 0.107069 0.516611
332 2 0.501881 0.0850557 0.504453
176 1 0.574623 0.228888 0.433783
294 2 0.801586 0.101791 0.423848
48 1 0.965518 0.209602 0.560076
123 1 0.951483 0.0519416 0.534053
195 1 0.773886 0.173212 0.529915
255 1 0.799241 0.023521 0.523116
171 1 0.885574 0.209386 0.434394
279 1 0.680479 0.288002 0.529745
147 1 0.646944 0.403446 0.433825
319 2 0.561147 0.343602 0.518689
111 1 0.528996 0.460619 0.534474
121 1 0.802708 0.383076 0.489314
37 1 0.949183 0.37882 0.502352
98 1 0.705754 0.0651236 0.649969
282 1 0.535746 0.0594377 0.627294
347 2 0.627511 0.126592 0.739033
239 1 0.647117 0.20391 0.643873
65 1 0.572094 0.245281 0.791435
30 1 0.636403 0.00341829 0.775146
33 1 0.514675 0.112247 0.795162
193 1 0.866128 0.102476 0.661725
349 2 0.750161 0.0817707 0.772535
313 2 0.96418 0.215798 0.70501
23 1 0.765135 0.20488 0.743483
316 2 0.721201 0.305485 0.674585
102 1 0.57268 0.409898 0.760087
120 1 0.5496 0.321125 0.642197
339 2 0.553252 0.481976 0.657493
233 1 0.655481 0.425928 0.615968
261 1 0.987352 0.35983 0.657962
11 1 0.853101 0.467057 0.603036
207 1 0.84513 0.284231 0.633641
55 1 0.885128 0.29428 0.769156
143 1 0.916069 0.457799 0.759096
172 1 0.767655 0.441241 0.719331
353 2 0.981268 0.4732 0.618456
71 1 0.575141 0.0767228 0.951911
89 1 0.666998 0.151248 0.862509
356 2 0.546886 0.186121 0.900388
226 1 0.747226 0.0138839 0.921277
360 2 0.810385 0.115241 0.902897
67 1 0.786111 0.248527 0.909648
284 1 0.90395 0.171597 0.96583
7 1 0.909793 0.128866 0.813496
175 1 0.618358 0.271442 0.95452
253 1 0.689497 0.341615 0.824387
58 1 0.572009 0.42602 0.919314
16 1 0.719238 0.397965 0.980101
306 2 0.84248 0.357054 0.957363
211 1 0.953022 0.309995 0.918049
18 1 0.826212 0.436374 0.871887
338 2 0.808223 0.496035 0.997847
343 2 0.576807 0.618669 0.0711455
202 1 0.665649 0.539756 0.154372
218 1 0.618697 0.720783 0.14539
80 1 0.506514 0.726086 0.00226228
124 1 0.750153 0.656851 0.0753784
95 1 0.889086 0.577176 0.0654618
109 1 0.877941 0.722119 0.146122
52 1 0.520138 0.830824 0.116561
197 1 0.661666 0.917286 0.171735
204 1 0.667844 0.905515 0.0121804
249 1 0.516017 0.959308 0.0414159
238 1 0.531261 0.984403 0.199421
290 2 0.877474 0.85859 0.149258
336 2 0.750541 0.983973 0.0994759
45 1 0.821803 0.89649 0.0403758
224 1 0.964866 0.829371 0.0584234
174 1 0.750757 0.794808 0.191673
247 1 0.951499 0.973585 0.147949
181 1 0.709095 0.581888 0.318113
188 1 0.560331 0.622434 0.267443
100 1 0.686334 0.733246 0.327524
309 2 0.739915 0.658024 0.200909
70 1 0.811854 0.544583 0.212933
135 1 0.841095 0.514023 0.373182
283 1 0.828689 0.672826 0.286398
344 2 0.934687 0.594329 0.287257
163 1 0.977168 0.713253 0.261791
289 2 0.613071 0.817929 0.239301
137 1 0.584786 0.907892 0.326623
86 1 0.730776 0.882071 0.308241
179 1 0.87306 0.823392 0.272803
217 1 0.967711 0.941869 0.29961
182 1 0.816315 0.951323 0.203313
196 1 0.826404 0.9815 0.360174
158 1 0.985489 0.819677 0.394143
168 1 0.691549 0.696383 0.481344
145 1 0.615603 0.550884 0.445647
173 1 0.742652 0.543175 0.510549
130 1 0.576085 0.624363 0.591058
271 1 0.55415 0.689981 0.401106
318 2 0.785318 0.644182 0.410888
310 2 0.888844 0.522607 0.492121
258 1 0.825867 0.658116 0.549559
178 1 0.98297 0.587786 0.558421
8 1 0.985465 0.510891 0.410232
14 1 0.924125 0.664289 0.431106
119 1 0.67215 0.992131 0.418031
269 1 0.63227 0.845182 0.443956
205 1 0.658446 0.930207 0.572355
118 1 0.513445 0.954606 0.47694
128 1 0.593768 0.799655 0.595668
302 2 0.525159 0.942413 0.59922
359 2 0.893306 0.756208 0.513645
90 1 0.779783 0.810606 0.567527
345 2 0.756963 0.89496 0.469269
133 1 0.884108 0.893409 0.47808
61 1 0.809856 0.783581 0.413876
25 1 0.624708 0.728547 0.733022
41 1 0.554986 0.581209 0.735705
40 1 0.698348 0.568608 0.66557
326 2 0.689721 0.714646 0.619825
331 2 0.685457 0.634254 0.790115
200 1 0.788136 0.725756 0.693656
206 1 0.81605 0.567908 0.782394
321 2 0.843665 0.589233 0.659036
31 1 0.964043 0.591652 0.706931
337 2 0.975308 0.721784 0.751162
20 1 0.921415 0.730987 0.630304
199 1 0.566331 0.883832 0.71268
280 1 0.718987 0.863145 0.711508
240 1 0.959515 0.983691 0.76509
214 1 0.8138 0.979139 0.760775
308 2 0.785908 0.923304 0.615282
268 1 0.873004 0.829624 0.765066
222 1 0.906564 0.920945 0.642642
131 1 0.613735 0.655685 0.884087
298 2 0.552785 0.54987 0.869761
51 1 0.671321 0.504474 0.826169
2 1 0.736649 0.748509 0.849302
288 1 0.503788 0.558156 0.986699
105 1 0.656964 0.556477 0.99405
12 1 0.925511 0.541502 0.913149
236 1 0.790606 0.610469 0.928748
29 1 0.890973 0.689016 0.842015
78 1 0.971297 0.680123 0.987667
164 1 0.827408 0.749337 0.991794
169 1 0.658081 0.76455 0.980549
246 1 0.650028 0.879461 0.855074
228 1 0.518453 0.786186 0.854924
334 2 0.555162 0.842322 0.958947
104 1 0.502898 0.950199 0.889218
69 1 0.911441 0.969455 0.907269
141 1 0.947224 0.815245 0.89903
213 1 0.795242 0.869202 0.892043
ITEM: TIMESTEP
300000
ITEM: NUMBER OF ATOMS
360
ITEM: BOX BOUNDS pp pp pp
0.0000000000000000e+00 6.6943295008216896e+00
0.0000000000000000e+00 6.6943295008216896e+00
0.0000000000000000e+00 6.6943295008216896e+00
ITEM: ATOMS id type xs ys zs
358 2 0.174953 0.162166 0.0612434
265 1 0.1269 0.0867661 0.175165
127 1 0.0729991 0.248227 0.143783
151 1 0.0460438 0.0898095 0.0405366
201 1 0.348639 0.43176 0.144264
243 1 0.285724 0.14925 0.130559
324 2 0.370484 0.212721 0.061322
198 1 0.449222 0.132454 0.138635
92 1 0.362846 0.278166 0.176623
15 1 0.116862 0.402099 0.166244
32 1 0.217275 0.281093 0.0994399
122 1 0.209895 0.438179 0.0506214
346 2 0.101628 0.369571 0.0389538
144 1 0.332022 0.338145 0.00947175
300 2 0.0146086 0.0239406 0.147262
330 2 0.452318 0.362079 0.166429
263 1 0.473198 0.446505 0.0549037
190 1 0.481725 0.277622 0.0609364
259 1 0.195274 0.0423443 0.0272504
245 1 0.371845 0.0638648 0.0199129
314 2 0.110116 0.16426 0.275819
81 1 0.216068 0.114071 0.355971
107 1 0.0243119 0.0681468 0.285147
35 1 0.231901 0.222148 0.252408
296 2 0.152296 0.227328 0.398123
317 2 0.280115 0.338236 0.357114
82 1 0.350021 0.104934 0.267381
291 2 0.411273 0.242906 0.304291
19 1 0.437934 0.47827 0.379453
210 1 0.448354 0.118189 0.381886
286 1 0.23949 0.382389 0.248284
84 1 0.0865367 0.442709 0.374113
21 1 0.110089 0.292627 0.298791
27 1 0.249067 0.465736 0.371478
244 1 0.472667 0.482424 0.213482
111 1 0.389354 0.377928 0.287337
208 1 0.225276 -0.00280735 0.245979
189 1 0.317854 0.220119 0.3977
157 1 0.224045 0.175061 0.501245
252 1 0.0929311 0.247607 0.522456
297 2 0.156603 0.0577375 0.465279
186 1 0.487471 0.154818 0.535975
9 1 0.116073 0.100137 0.576375
285 1 0.342844 0.394197 0.459746
68 1 0.359032 0.257889 0.547036
332 2 0.317001 0.0951303 0.435193
3 1 0.328294 0.46483 0.5954
256 1 0.059986 0.134342 0.426947
93 1 0.188142 0.340891 0.439663
50 1 0.0715845 0.404889 0.533835
234 1 0.228931 0.33716 0.586522
118 1 0.39836 0.0181524 0.498991
303 2 0.443405 0.375486 0.529651
248 1 0.450227 0.293546 0.414962
290 2 0.00311491 0.0118687 0.412843
47 1 0.0123481 0.310705 0.419367
240 1 0.0693879 0.0858846 0.75599
1 1 0.175289 0.193786 0.688949
185 1 0.230426 0.063786 0.737804
147 1 0.479315 0.469738 0.607173
94 1 0.392094 0.0530086 0.741064
120 1 0.41853 0.186034 0.669932
319 2 0.29414 0.242376 0.684284
134 1 0.302053 0.457732 0.786285
274 1 0.093135 0.332496 0.681406
192 1 0.221784 0.322957 0.762271
54 1 0.180782 0.474444 0.673982
28 1 0.307428 0.108185 0.606907
136 1 0.378931 0.34883 0.697872
302 2 0.446131 0.052147 0.618265
351 2 0.391343 0.493164 0.692174
97 1 0.46693 0.468895 0.784078
262 1 0.147521 0.113904 0.886677
292 2 0.213559 0.213401 0.83462
96 1 0.116745 0.436068 0.809733
59 1 0.339859 0.321655 0.855581
17 1 0.250417 0.192734 0.960279
220 1 0.280347 0.0484427 0.883588
85 1 0.41188 0.204053 0.929838
235 1 0.464923 0.361962 0.930598
103 1 0.345182 0.468164 0.938364
73 1 0.102526 0.229916 0.978009
26 1 0.0953454 0.244023 0.8205
352 2 0.197733 0.490251 0.898646
225 1 0.0756615 0.46912 0.966609
209 1 0.197839 0.348745 0.928259
126 1 0.332223 0.180063 0.799435
301 2 0.477734 0.490043 0.915729
233 1 0.475779 0.276084 0.806691
132 1 0.0495456 -0.00039227 0.886077
187 1 0.230551 0.567911 0.141925
275 1 0.405282 0.881054 0.0195972
227 1 0.0830041 0.560134 0.0979907
312 2 0.309545 0.802447 0.111322
354 2 0.301707 0.518483 0.0515555
273 1 0.215512 0.721397 0.0829548
87 1 0.391525 0.58598 0.130455
194 1 0.416206 0.744895 0.0794253
88 1 0.504415 0.974668 0.11353
247 1 0.0667245 0.94461 0.0492226
57 1 0.0900219 0.815574 0.111572
359 2 0.184059 0.959459 0.129462
203 1 0.225537 0.859411 0.019861
66 1 0.310157 0.953382 0.11803
99 1 0.222199 0.839112 0.196209
224 1 0.0771449 0.701077 0.00858083
46 1 0.414182 0.863273 0.179363
83 1 0.131909 0.680331 0.200675
8 1 0.0643907 0.654976 0.333952
270 1 0.231356 0.682837 0.335021
63 1 0.132932 0.535456 0.265168
338 2 0.0265784 0.616848 0.219316
229 1 0.444099 0.993736 0.258319
215 1 0.338581 0.538446 0.264547
170 1 0.330359 0.725069 0.223257
289 2 0.368409 0.654078 0.343567
139 1 0.461695 0.762173 0.320588
150 1 0.469079 0.627207 0.268473
267 1 0.31798 0.841261 0.320303
287 1 0.0779936 0.939232 0.221534
163 1 0.137247 0.794575 0.322663
281 1 0.138921 0.955225 0.37184
75 1 0.314553 0.993555 0.36748
158 1 0.00470973 0.787357 0.239538
341 2 0.167624 0.565743 0.387179
137 1 0.456378 0.900861 0.379706
142 1 0.179634 0.679379 0.473658
29 1 0.0653775 0.564181 0.462325
323 2 0.0543347 0.68151 0.534045
328 2 0.27142 0.595623 0.556367
223 1 0.390231 0.635551 0.58225
149 1 0.312487 0.579206 0.437493
116 1 0.244174 0.987374 0.517736
79 1 0.365057 0.734765 0.437466
6 1 0.465288 0.614442 0.431917
167 1 0.0763508 0.947783 0.512504
125 1 0.198661 0.834013 0.483482
191 1 0.0518999 0.799538 0.46108
184 1 0.199361 0.491932 0.512962
321 2 0.399912 0.526776 0.515139
313 2 0.0172958 0.874429 0.598159
110 1 0.27563 0.739403 0.59218
254 1 0.355962 0.873556 0.495236
276 1 0.192724 0.710311 0.74557
237 1 0.0704241 0.589051 0.744356
298 2 0.0533832 0.713931 0.698716
72 1 0.152859 0.621682 0.616747
130 1 0.468155 0.598561 0.710691
4 1 0.285683 0.601336 0.691705
293 2 0.372177 0.708614 0.700294
114 1 0.486581 0.74099 0.762294
60 1 0.140079 0.959858 0.652602
337 2 0.041095 0.955136 0.74472
152 1 0.0744591 0.824186 0.755676
216 1 0.233698 0.852326 0.730268
148 1 0.417988 0.806769 0.611678
64 1 0.332074 0.948841 0.630251
355 2 0.282161 0.949 0.791574
199 1 0.386265 0.860513 0.752976
205 1 0.487831 0.939304 0.653855
322 2 0.219521 0.874269 0.605381
74 1 0.113099 0.786057 0.606708
342 2 0.101121 0.58249 0.883683
5 1 0.0723311 0.707337 0.860783
257 1 0.214953 0.583209 0.823902
117 1 0.20257 0.726771 0.928367
311 2 0.337631 0.776708 0.951811
153 1 0.444547 0.72567 0.923485
39 1 0.323078 0.645738 0.986592
272 1 0.389233 0.591351 0.848821
348 2 0.468303 0.987563 0.973216
104 1 0.416642 0.973585 0.863581
356 2 0.303322 0.958626 0.984714
177 1 0.0758687 0.845986 0.936299
315 2 0.173897 0.821388 0.835251
329 2 0.165174 0.957436 0.931308
333 2 0.458995 0.857209 0.898844
277 1 0.294747 0.874809 0.887877
24 1 0.3256 0.730341 0.817886
161 1 0.175026 0.580669 0.986533
241 1 0.158392 0.94819 0.806819
140 1 0.459577 0.586445 0.995231
283 1 0.849211 0.361068 0.0233531
175 1 0.613832 0.198623 0.109788
310 2 0.705354 0.124379 0.170131
204 1 0.653654 0.00261623 0.153875
336 2 0.922743 0.0900654 0.0356367
165 1 0.802294 0.216045 0.123608
155 1 0.951061 0.134787 0.162794
174 1 0.80398 0.0566983 0.148088
249 1 0.522371 0.125412 -0.00149586
49 1 0.844779 0.420554 0.18556
159 1 0.716738 0.333136 0.128473
16 1 0.580707 0.371936 0.151417
183 1 0.696303 0.0936823 0.0304284
13 1 0.988936 0.396794 0.0767291
156 1 0.922869 0.286584 0.170689
334 2 0.583879 0.382691 0.00124409
266 1 0.708429 0.49248 0.119729
349 2 0.79009 0.00661957 0.00945665
162 1 0.954915 0.22962 0.0292038
306 2 0.595589 0.0196475 0.0239618
36 1 0.697301 0.0614363 0.2988
230 1 0.556879 0.101108 0.249202
112 1 0.686506 0.221965 0.250885
325 2 0.608671 0.489527 0.194132
22 1 0.978398 0.216323 0.29376
196 1 0.826728 0.134028 0.277505
10 1 0.826513 0.300834 0.288555
231 1 0.975529 0.380575 0.286083
135 1 0.860127 0.408586 0.387911
242 1 0.698651 0.421771 0.260952
219 1 0.55172 0.379797 0.311739
250 1 0.699789 0.323479 0.377305
176 1 0.583078 0.19161 0.375369
77 1 0.508601 0.253174 0.221192
171 1 0.638814 0.122898 0.534029
261 1 0.92648 0.451491 0.516584
121 1 0.653734 0.411506 0.585932
207 1 0.629623 0.271533 0.518576
172 1 0.783341 0.371914 0.5257
195 1 0.800755 0.0584779 0.521773
48 1 0.964173 0.162182 0.536367
253 1 0.78544 0.209574 0.558994
160 1 0.874057 0.260145 0.419876
106 1 0.546301 0.408833 0.473776
37 1 0.709203 0.467689 0.438117
113 1 0.9217 0.313166 0.586108
304 2 0.621092 0.0759679 0.416872
182 1 0.906904 0.10279 0.409191
53 1 0.733343 0.151147 0.421578
239 1 0.559982 0.0845283 0.667861
23 1 0.713572 0.114793 0.674658
65 1 0.601605 0.208156 0.761982
143 1 0.945532 0.35236 0.765683
102 1 0.519412 0.306011 0.611338
343 2 0.821581 0.323509 0.782776
55 1 0.876533 0.10083 0.656175
316 2 0.783343 0.0289454 0.741133
12 1 0.842181 0.41207 0.673248
260 1 0.853482 0.238948 0.699455
305 2 0.953091 0.20793 0.800069
339 2 0.611131 0.209873 0.63799
40 1 0.712701 0.446894 0.744424
58 1 0.573248 0.369323 0.725692
279 1 0.702245 0.295731 0.679842
357 2 0.737936 0.199651 0.777181
138 1 1.01034 0.19972 0.68864
320 2 0.633273 0.0865188 0.779293
56 1 0.991886 0.473021 0.670137
123 1 0.997171 0.00884805 0.632161
193 1 0.851061 0.131785 0.816847
89 1 0.697047 0.137358 0.877133
284 1 0.977777 0.142873 0.906999
212 1 0.584151 0.247609 0.933455
307 2 0.954139 0.462871 0.964603
67 1 0.862139 0.260077 0.893989
33 1 0.750304 0.0029199 0.870506
18 1 0.842754 0.435952 0.860653
71 1 0.82036 0.140122 0.96806
76 1 0.724188 0.250889 0.9922
69 1 0.902487 0.00862518 0.925867
105 1 0.713016 0.413649 0.978931
288 1 0.597009 0.429811 0.869894
51 1 0.707486 0.311213 0.844889
326 2 0.713781 0.491765 0.881878
211 1 0.997507 0.336174 0.93545
282 1 0.508808 0.112488 0.838094
202 1 0.710627 0.666298 0.117803
188 1 0.558497 0.588001 0.125309
309 2 0.516772 0.826752 0.10166
226 1 0.782489 0.894344 0.143916
360 2 0.904279 0.869853 0.176295
146 1 0.83564 0.584181 0.165033
109 1 0.961367 0.673344 0.127439
295 2 0.949943 0.55059 0.0890392
70 1 0.843476 0.674851 0.0226369
166 1 0.556013 0.710102 0.0350629
141 1 0.939289 0.807984 0.0542238
218 1 0.637465 0.836238 0.117338
129 1 0.704642 0.923268 0.0122628
124 1 0.831289 0.745541 0.172218
34 1 0.837381 0.516747 0.0168992
45 1 0.921689 0.959817 0.0780653
62 1 0.598062 0.513393 -0.00337128
181 1 0.677329 0.596424 0.255838
44 1 0.595469 0.682316 0.359153
238 1 0.585027 0.97795 0.3369
43 1 0.586771 0.528052 0.359245
86 1 0.856901 0.82426 0.295066
115 1 0.965075 0.510063 0.210477
168 1 0.768451 0.700677 0.375216
14 1 0.918383 0.654839 0.28595
344 2 0.786651 0.662513 0.256306
42 1 0.807491 0.527972 0.295459
180 1 0.957631 0.526226 0.363537
278 1 0.722554 0.895917 0.287715
197 1 0.54829 0.88274 0.240528
100 1 0.702664 0.759376 0.247456
318 2 0.967408 0.755733 0.355001
217 1 0.916581 0.991041 0.222818
340 2 0.694681 0.590964 0.397033
133 1 0.843824 0.956137 0.370859
101 1 0.996545 0.908137 0.352208
119 1 0.631609 0.829579 0.394405
294 2 0.761667 0.829546 0.39014
264 1 0.555738 0.732869 0.193141
41 1 0.59983 0.553295 0.527863
221 1 0.702206 0.964338 0.437132
178 1 0.942645 0.672621 0.445075
145 1 0.827731 0.703958 0.528314
11 1 0.829029 0.56306 0.447603
38 1 0.976404 0.588974 0.585505
271 1 0.66332 0.704403 0.493907
128 1 0.606368 0.850096 0.574405
222 1 0.923465 0.97375 0.495897
350 2 0.866304 0.828481 0.580409
90 1 0.762014 0.841489 0.51755
179 1 0.903706 0.82878 0.452019
269 1 0.509791 0.757282 0.473291
173 1 0.77494 0.528605 0.587272
91 1 0.545185 1.00175 0.494951
335 2 0.498493 0.87805 0.515565
98 1 0.671706 0.993742 0.594628
299 2 0.607587 0.658575 0.747175
280 1 0.713704 0.648909 0.659608
131 1 0.60135 0.543482 0.673544
347 2 0.510494 0.994707 0.766035
61 1 0.826835 0.953937 0.622379
25 1 0.551725 0.704686 0.622079
331 2 0.842676 0.635769 0.639982
31 1 0.853531 0.547601 0.728652
78 1 0.9393 0.70836 0.759317
255 1 0.923513 1.00406 0.769949
164 1 0.941221 0.860564 0.696238
7 1 0.662593 0.969292 0.73594
246 1 0.652187 0.781754 0.738912
308 2 0.729424 0.888831 0.653382
327 2 0.53413 0.821146 0.673837
268 1 0.812635 0.763443 0.689064
345 2 0.697212 0.7613 0.607979
214 1 0.797936 0.900539 0.769082
258 1 0.958889 0.743768 0.607044
232 1 0.543415 0.872151 0.804388
228 1 0.695502 0.583512 0.799948
154 1 0.553166 0.581527 0.86301
2 1 0.594428 0.735195 0.892982
80 1 0.72341 0.775269 1.00469
30 1 0.601145 1.00205 0.892186
200 1 0.839774 0.610034 0.879179
95 1 0.928352 0.734286 0.910215
236 1 0.773554 0.760459 0.849689
251 1 0.976906 0.588664 0.967782
213 1 0.671457 0.868289 0.876873
52 1 0.557571 0.870787 0.984131
206 1 0.69118 0.629416 0.949223
108 1 0.971118 0.508666 0.839356
169 1 0.829931 0.871931 0.938512
20 1 0.954567 0.866344 0.841288
353 2 0.96666 0.896833 0.965724
ITEM: TIMESTEP
600000
ITEM: NUMBER OF ATOMS
360
ITEM: BOX BOUNDS pp pp pp
0.0000000000000000e+00 6.6943295008216896e+00
0.0000000000000000e+00 6.6943295008216896e+00
0.0000000000000000e+00 6.6943295008216896e+00
ITEM: ATOMS id type xs ys zs
32 1 0.167984 0.180979 0.032181
300 2 0.081325 0.103592 0.0991442
156 1 0.104191 0.217824 0.169481
127 1 0.243853 0.0361974 0.0451161
358 2 0.204095 0.146517 0.158411
190 1 0.453478 0.283728 0.109234
265 1 0.315951 0.179547 0.0975139
270 1 0.00440496 0.357094 -0.0106538
92 1 0.458314 0.097536 0.0862122
122 1 0.15398 0.41291 0.03034
286 1 0.0971299 0.402074 0.174723
352 2 0.0919645 0.298835 0.0801848
21 1 0.21278 0.301966 0.114298
85 1 0.334124 0.4036 0.0937116
312 2 0.340664 0.279697 0.0253471
201 1 0.236697 0.456181 0.203181
281 1 0.304692 0.0463068 0.180298
75 1 0.091874 0.179431 0.326335
35 1 0.193004 0.0506976 0.360865
186 1 0.337401 0.308764 0.217401
107 1 0.248839 0.174237 0.28458
243 1 0.128513 0.0699762 0.219287
93 1 0.305282 0.401215 0.338261
136 1 0.408114 0.173727 0.224119
137 1 0.348321 0.0886822 0.353162
157 1 0.353304 0.247646 0.371163
290 2 0.00606747 0.0813707 0.316036
82 1 0.472978 0.025098 0.232437
248 1 0.451361 0.428161 0.364107
307 2 0.0508259 0.305033 0.249494
84 1 0.184062 0.310171 0.269811
215 1 0.417028 0.450988 0.223048
42 1 0.061951 0.360828 0.364522
111 1 0.511091 0.302619 0.276354
91 1 0.495853 0.151699 0.359515
353 2 0.212619 0.487191 0.32632
167 1 0.146391 0.220877 0.57122
116 1 0.145993 0.0563415 0.542527
346 2 0.154641 0.146698 0.439711
68 1 0.165687 0.497291 0.592973
234 1 0.199988 0.264621 0.420599
163 1 0.281672 0.133896 0.485636
120 1 0.40021 0.217638 0.568754
94 1 0.42891 0.0778282 0.48949
319 2 0.272973 0.247239 0.555648
285 1 0.200132 0.440421 0.442199
184 1 0.108781 0.362281 0.539039
149 1 0.321024 0.483756 0.585613
210 1 0.480854 0.299943 0.441945
256 1 0.0325969 0.227117 0.465742
97 1 0.323438 0.349336 0.495863
317 2 0.428721 0.420771 0.49801
222 1 0.0203935 0.073184 0.438084
180 1 0.0446351 0.485678 0.471202
1 1 0.103249 0.0825771 0.686485
209 1 0.0787899 0.240095 0.716063
60 1 0.218743 0.160331 0.782104
296 2 0.208692 0.239583 0.690343
332 2 0.00677556 0.462863 0.755868
125 1 0.378158 0.00563726 0.603671
333 2 0.377692 0.122238 0.683332
288 1 0.46559 0.472586 0.626427
185 1 0.238329 0.351431 0.62841
277 1 0.332785 0.0171101 0.749017
26 1 0.101241 0.388819 0.690155
81 1 0.259306 0.141735 0.634069
212 1 0.489524 0.0476874 0.746965
291 2 0.223684 0.460682 0.70662
126 1 0.33488 0.257936 0.716761
147 1 0.353801 0.425672 0.727207
355 2 0.382989 0.365659 0.627974
65 1 0.48825 0.207857 0.689781
335 2 0.469404 0.113903 0.598512
324 2 0.200522 0.109933 0.915919
9 1 0.0761538 0.167027 0.841779
259 1 0.0853915 0.0802645 0.972266
104 1 0.305446 0.0344719 0.883365
30 1 0.462145 0.0632151 0.923255
282 1 0.378319 0.149768 0.812391
249 1 0.439183 0.209078 0.972875
245 1 0.281851 0.202027 0.930592
233 1 0.380569 0.305952 0.852196
235 1 0.482443 0.473638 0.856085
96 1 0.1048 0.432461 0.844144
227 1 0.126064 0.28024 0.93662
351 2 0.0713654 0.306561 0.830982
301 2 0.363751 0.434397 0.869535
54 1 0.253736 0.479013 0.822515
134 1 0.269756 0.361572 0.948915
59 1 0.42538 0.375816 0.978268
306 2 0.208196 0.49241 0.945661
220 1 0.163271 0.00752244 0.823478
320 2 0.358869 0.112974 0.999311
192 1 0.200644 0.315194 0.787935
124 1 0.0589968 0.712727 0.0717872
224 1 0.124337 0.552803 0.109934
177 1 0.219931 0.687794 0.103854
341 2 0.337448 0.758263 0.118707
170 1 0.270149 0.541033 0.0389944
267 1 0.368423 0.666753 0.0337359
330 2 0.379775 0.541132 0.128232
198 1 0.383475 0.899024 0.173398
151 1 0.24442 0.852671 0.0869586
57 1 0.118276 0.796095 0.20214
360 2 0.105554 0.853409 0.0438711
80 1 0.102712 0.97092 0.0874703
117 1 0.381116 0.964455 0.0389769
187 1 0.339108 0.644758 0.197634
46 1 0.455677 0.768508 0.170755
188 1 0.442289 0.525914 0.0150912
251 1 0.41579 0.814948 0.0163694
244 1 0.486991 0.593889 0.168107
342 2 0.0237133 0.511496 0.185933
83 1 0.192286 0.598116 0.253297
204 1 0.0499717 0.632154 0.217277
19 1 0.49327 0.572558 0.313943
354 2 0.425161 0.686593 0.275814
106 1 0.338482 0.565192 0.315184
79 1 0.264529 0.790175 0.246282
109 1 0.115721 0.729901 0.354489
315 2 0.118537 0.850263 0.317974
278 1 0.0640669 0.960194 0.329016
229 1 0.311481 0.94556 0.311484
294 2 0.0520185 0.915728 0.206435
254 1 0.415876 0.822579 0.30635
45 1 0.184551 0.930137 0.223587
223 1 0.289494 0.686757 0.393843
70 1 0.0819606 0.500671 0.301533
146 1 0.0015231 0.628297 0.373247
230 1 0.482917 0.96899 0.377664
178 1 0.10361 0.630893 0.586399
331 2 0.0693365 0.705524 0.4669
302 2 0.384267 0.958912 0.458884
205 1 0.329246 0.761557 0.590012
3 1 0.425917 0.547105 0.459954
347 2 0.374614 0.675956 0.51376
27 1 0.154732 0.590798 0.41412
63 1 0.261368 0.617236 0.527767
110 1 0.342751 0.823673 0.441315
298 2 0.257913 0.866033 0.551318
8 1 0.190203 0.750691 0.504328
4 1 0.13739 0.90022 0.549904
101 1 0.0569317 0.838988 0.449677
64 1 0.270608 0.984492 0.492263
321 2 0.304487 0.527455 0.447852
304 2 0.127237 0.975074 0.440522
199 1 0.445087 0.870785 0.550601
55 1 -0.00660763 0.989727 0.568924
25 1 0.481444 0.72956 0.551314
128 1 0.438837 0.685761 0.402531
99 1 0.205519 0.871767 0.404718
237 1 0.134445 0.692816 0.72297
56 1 0.125438 0.539834 0.737581
340 2 0.224843 0.694225 0.624472
216 1 0.481695 0.89091 0.719989
24 1 0.284751 0.736331 0.741204
272 1 0.265675 0.590168 0.678155
154 1 0.400159 0.570529 0.756591
213 1 0.434891 0.730609 0.714225
148 1 0.398556 0.61464 0.620469
132 1 0.0453632 0.930402 0.70505
142 1 0.183401 0.830793 0.676108
74 1 0.335636 0.878564 0.692651
158 1 0.0461663 0.772337 0.599148
191 1 0.222203 0.983894 0.654714
293 2 0.10484 0.559426 0.865621
255 1 0.068531 0.685936 0.861882
39 1 0.218527 0.626742 0.836792
152 1 0.0176577 0.810228 0.953806
225 1 0.0321156 0.511152 0.976693
161 1 0.342266 0.571912 0.909092
273 1 0.478481 0.628431 0.906941
138 1 0.100269 0.825243 0.821674
322 2 0.494546 0.943717 0.972796
323 2 0.207806 0.76923 0.838867