ITEM: TIMESTEP
0
ITEM: NUMBER OF ATOMS
360
ITEM: BOX BOUNDS pp pp pp
0.0000000000000000e+00 6.6943295008216896e+00
0.0000000000000000e+00 6.6943295008216896e+00
0.0000000000000000e+00 6.6943295008216896e+00
ITEM: ATOMS id type xs ys zs
241 1 0.0751137 0.0773405 0.0896269
318 2 0.101747 0.219525 0.143054
271 1 0.152406 0.206667 0.0189242
39 1 0.216217 0.150386 0.17866
355 2 0.144595 0.0375621 0.187942
8 1 0.277575 0.0999161 0.033812
147 1 0.369477 0.163456 0.147884
305 2 0.378913 0.0344381 0.0830303
329 2 0.478279 0.225046 0.1102
248 1 0.490224 0.103939 0.0792683
265 1 0.275608 0.00808583 0.159848
128 1 0.127035 0.497511 0.0748623
188 1 0.16403 0.343976 0.129116
129 1 0.0303243 0.367309 0.0577603
14 1 0.210799 0.494072 0.197244
98 1 0.298208 0.415424 0.102438
290 2 0.428423 0.448354 0.156738
198 1 0.284777 0.26292 0.0658293
109 1 0.43057 0.351613 0.0391045
114 1 0.441378 0.324367 0.194997
92 1 0.169689 0.0886377 0.311184
228 1 0.0485491 0.143991 0.229219
34 1 0.00190349 0.225884 0.352405
311 2 0.117138 0.191565 0.392073
220 1 0.320008 0.0917821 0.283846
130 1 0.416642 0.21863 0.315749
278 1 0.253445 0.197013 0.388216
48 1 0.427243 0.00888944 0.212052
9 1 0.141118 0.267327 0.281075
224 1 0.0230808 0.305953 0.200806
93 1 0.0907324 0.421249 0.278752
29 1 0.22474 0.366111 0.370388
309 2 0.212761 0.383612 0.24753
298 2 0.133192 0.456064 0.395397
212 1 0.331056 0.418594 0.268193
30 1 0.453824 0.369077 0.354089
315 2 0.336077 0.314607 0.34822
207 1 0.298579 0.271267 0.226078
132 1 0.230768 0.0290733 0.458972
18 1 0.142255 0.172385 0.534104
312 2 0.118233 0.0490308 0.546868
195 1 0.0509675 0.0839033 0.423876
28 1 0.391033 0.101008 0.425314
281 1 0.297909 0.160756 0.533013
308 2 0.421335 0.111739 0.555209
151 1 0.350393 0.0139245 0.583357
259 1 0.231699 0.301811 0.51305
256 1 0.20626 0.458866 0.518518
260 1 0.0330063 0.445646 0.532487
123 1 0.0863124 0.328884 0.427479
173 1 0.0727412 0.291386 0.573637
206 1 0.498565 0.481813 0.458958
189 1 0.409055 0.258244 0.4743
84 1 0.485732 0.362068 0.585212
181 1 0.349091 0.423428 0.455267
353 2 0.400417 0.481195 0.582397
106 1 0.0556011 0.168939 0.664482
254 1 0.206979 0.084801 0.641717
336 2 0.131618 0.216886 0.752754
178 1 0.211062 0.240497 0.659873
239 1 0.178084 0.106915 0.787668
67 1 0.00881485 0.0781871 0.7945
62 1 0.333288 0.00516646 0.728429
16 1 0.321379 0.174406 0.762629
161 1 0.45288 0.0941274 0.681685
156 1 0.385968 0.236247 0.627692
108 1 0.495185 0.239558 0.730716
304 2 0.0415567 0.408999 0.658733
119 1 0.165403 0.397026 0.651939
159 1 0.0605301 0.321776 0.739671
233 1 0.370422 0.327845 0.761702
238 1 0.419682 0.491438 0.720657
86 1 0.270216 0.448428 0.784671
258 1 0.325898 0.384082 0.623033
26 1 0.0823456 0.222063 0.868669
347 2 0.147443 0.0837257 0.965237
246 1 0.0194615 0.0953371 0.944558
320 2 0.0341958 0.247775 0.990101
222 1 0.261399 0.025593 0.892518
69 1 0.254031 0.186656 0.905601
264 1 0.439133 0.117338 0.83904
282 1 0.414653 0.0282608 0.960006
325 2 0.368024 0.246535 0.870784
143 1 0.398569 0.20076 0.983706
88 1 0.00445138 0.36072 0.90843
126 1 0.128619 0.432762 0.835151
180 1 0.162445 0.35376 0.977656
42 1 0.248892 0.479241 0.962345
25 1 0.211604 0.294769 0.805612
15 1 0.315917 0.342983 0.933299
187 1 0.46993 0.33151 0.871
229 1 0.379749 0.48173 0.883583
141 1 0.16067 0.701942 0.0945416
327 2 0.150505 0.611782 0.182971
60 1 0.0352532 0.610168 0.118661
321 2 0.233243 0.732741 0.191728
216 1 0.259334 0.577656 0.0786571
255 1 0.367237 0.717173 0.176007
160 1 0.423599 0.549991 0.0347558
218 1 0.431576 0.702561 0.0293941
280 1 0.369149 0.561823 0.187918
113 1 0.165294 0.954239 0.0426709
226 1 0.0551838 0.808647 0.107349
17 1 0.202559 0.856235 0.176086
354 2 0.168593 0.824111 0.038532
12 1 0.00381579 0.949191 0.0517981
72 1 0.311112 0.936113 0.0216035
120 1 0.473681 0.945596 0.0758472
68 1 0.290331 0.775046 0.0523503
225 1 0.355832 0.884541 0.163716
301 2 0.400217 0.836743 0.0446204
101 1 0.102007 0.574071 0.304353
268 1 0.0975455 0.711411 0.245973
240 1 0.24798 0.523943 0.379114
242 1 0.00767227 0.696849 0.391002
133 1 0.260767 0.635103 0.267592
292 2 0.369287 0.686337 0.314382
97 1 0.399872 0.559078 0.346207
70 1 0.495298 0.64375 0.241813
324 2 0.138631 0.974924 0.376054
279 1 0.0104073 0.955007 0.344437
134 1 0.100032 0.836067 0.33497
155 1 0.228393 0.946821 0.292945
63 1 0.0684444 0.934131 0.203388
23 1 0.425688 0.813335 0.29502
137 1 0.36859 0.960231 0.357402
19 1 0.272667 0.785449 0.305324
105 1 0.0980823 0.565146 0.462954
310 2 0.119531 0.675635 0.569602
46 1 0.22909 0.611676 0.52702
50 1 0.165187 0.708437 0.404665
217 1 0.30798 0.67196 0.421033
136 1 0.41817 0.604331 0.559751
300 2 0.361201 0.726494 0.530105
351 2 0.34798 0.565813 0.460477
169 1 0.485034 0.749491 0.564714
192 1 0.457735 0.693038 0.407183
252 1 0.211683 0.923382 0.584205
208 1 0.216139 0.868849 0.429248
162 1 0.0882484 0.935625 0.488346
274 1 0.0904887 0.790007 0.525839
102 1 0.235399 0.760414 0.553659
322 2 0.477674 0.872742 0.562985
261 1 0.370903 0.831405 0.455639
297 2 0.304129 0.930054 0.503236
285 1 0.458711 0.966988 0.470827
61 1 0.190036 0.659752 0.683178
302 2 0.174527 0.507408 0.736324
190 1 0.0349156 0.663814 0.664836
204 1 0.0454662 0.543525 0.770826
154 1 0.120325 0.544329 0.622214
270 1 0.477908 0.649319 0.709443
87 1 0.344992 0.698144 0.654377
45 1 0.281744 0.533605 0.649762
337 2 0.37891 0.720245 0.790338
191 1 0.313651 0.607834 0.778962
201 1 0.0899394 0.988907 0.672422
306 2 0.00541417 0.792671 0.734235
203 1 0.206404 0.924475 0.770747
43 1 0.128395 0.804662 0.672862
140 1 0.00481277 0.894799 0.606587
6 1 0.0208653 0.908957 0.77908
118 1 0.472544 0.92115 0.687628
289 2 0.442482 0.789698 0.683285
295 2 0.266774 0.791366 0.667639
57 1 0.342729 0.84144 0.753738
5 1 0.359015 0.857584 0.608542
58 1 0.178851 0.71716 0.944229
200 1 0.171556 0.571121 0.862971
196 1 0.0395168 0.530662 0.948839
194 1 0.0298473 0.690372 0.980712
185 1 0.074743 0.69079 0.825108
339 2 0.154394 0.590624 0.9928
35 1 0.224074 0.736873 0.806299
272 1 0.442849 0.63788 0.852965
54 1 0.295056 0.630457 0.937793
348 2 0.122237 0.845284 0.840078
1 1 0.0728734 0.841267 0.95735
41 1 0.227757 0.866293 0.903452
165 1 0.109571 0.980231 0.893579
125 1 0.360885 0.777839 0.911439
47 1 0.447154 0.943776 0.834887
332 2 0.319684 0.930265 0.83892
138 1 0.498262 0.834151 0.963874
276 1 0.486106 0.795457 0.806062
157 1 0.643693 0.131495 0.0956221
56 1 0.578551 0.0107698 0.176831
251 1 0.558885 0.230402 0.00603429
358 2 0.902993 0.120493 0.140349
340 2 0.764258 0.075482 0.034227
232 1 0.812629 0.19894 0.0938392
107 1 0.891736 0.0584056 0.0317795
11 1 0.982194 0.191472 0.0828556
135 1 0.675173 0.468432 0.0507993
253 1 0.585333 0.27074 0.149482
36 1 0.716206 0.336796 0.128163
263 1 0.544218 0.416608 0.114037
291 2 0.613019 0.351457 0.0274174
294 2 0.795984 0.452818 0.0862088
199 1 0.881022 0.346255 0.121895
168 1 0.92501 0.476123 0.0284921
116 1 0.984494 0.464112 0.185167
99 1 0.643755 0.0810546 0.301846
59 1 0.505917 0.0233468 0.336937
10 1 0.706732 0.22895 0.238684
257 1 0.512367 0.152568 0.220973
74 1 0.779025 0.0717307 0.382533
153 1 0.91746 0.0844324 0.294299
21 1 0.893551 0.219822 0.222094
27 1 0.850874 0.22124 0.372821
51 1 0.785646 0.0976604 0.223812
13 1 0.509071 0.490365 0.255395
20 1 0.582095 0.268265 0.322417
349 2 0.555611 0.371388 0.248304
277 1 0.729005 0.356901 0.320752
150 1 0.600619 0.425118 0.356989
352 2 0.710376 0.492982 0.314102
95 1 0.652856 0.451284 0.210914
288 1 0.906824 0.371903 0.298579
350 2 0.809022 0.320951 0.227975
227 1 0.807996 0.460406 0.21831
267 1 0.826796 0.457866 0.39204
193 1 0.677305 0.110738 0.526654
104 1 0.550979 0.143491 0.428359
166 1 0.697656 0.214852 0.405695
209 1 0.530464 0.202907 0.570056
171 1 0.53794 0.043933 0.570255
96 1 0.824797 0.0962877 0.551566
326 2 0.901277 0.116393 0.428601
221 1 0.977053 0.195577 0.506743
158 1 0.996628 0.0626161 0.582494
319 2 0.612168 0.466472 0.515963
142 1 0.680808 0.253241 0.567909
112 1 0.569379 0.32952 0.46549
110 1 0.71708 0.396506 0.482624
313 2 0.94836 0.358671 0.568255
179 1 0.93401 0.349895 0.444034
236 1 0.836066 0.257175 0.518428
273 1 0.881468 0.467648 0.532761
314 2 0.807791 0.33584 0.415966
37 1 0.627466 0.139342 0.675347
144 1 0.565566 0.038339 0.781912
22 1 0.724228 0.0156382 0.638169
89 1 0.734146 0.0727014 0.774946
24 1 0.770979 0.203006 0.670661
66 1 0.889824 0.104882 0.695899
323 2 0.968086 0.00018996 0.707594
77 1 0.940813 0.247091 0.798876
49 1 0.655416 0.406181 0.618285
360 2 0.574872 0.294838 0.642501
145 1 0.544892 0.393647 0.734374
31 1 0.667611 0.29622 0.719477
111 1 0.807379 0.353128 0.629338
316 2 0.833355 0.284404 0.732516
33 1 0.924147 0.390366 0.728942
164 1 0.928496 0.260043 0.646512
176 1 0.563969 0.0903745 0.932986
52 1 0.596854 0.213002 0.836846
4 1 0.708912 0.121498 0.927663
230 1 0.867424 0.115016 0.87438
148 1 0.770158 0.242686 0.832869
163 1 0.714537 0.261586 0.980454
284 1 0.538638 0.447803 0.964275
286 1 0.630175 0.359156 0.857028
234 1 0.805595 0.39829 0.967465
296 2 0.874373 0.333904 0.862048
115 1 0.903986 0.48382 0.861152
32 1 0.896014 0.258522 0.953559
223 1 0.773256 0.394779 0.800945
82 1 0.594887 0.723911 0.0304387
170 1 0.740307 0.585719 0.14907
262 1 0.571087 0.591368 0.11578
356 2 0.677646 0.615761 0.0190851
269 1 0.745231 0.715913 0.0799982
344 2 0.5965 0.714242 0.162341
334 2 0.937772 0.61257 0.010415
90 1 0.887463 0.573225 0.135603
183 1 0.924126 0.733507 0.119095
357 2 0.833907 0.681519 0.193522
307 2 0.583758 0.865202 0.0538178
210 1 0.642766 0.983147 0.0336719
83 1 0.669573 0.841844 0.153926
100 1 0.500047 0.810065 0.145867
184 1 0.830771 0.847034 0.183888
182 1 0.869569 0.870136 0.0201354
299 2 0.946376 0.863255 0.128128
245 1 0.779157 0.972282 0.109796
55 1 0.906102 0.983556 0.180574
205 1 0.636965 0.604614 0.268853
172 1 0.726569 0.736696 0.239669
211 1 0.703592 0.697293 0.389889
343 2 0.55147 0.582145 0.364539
287 1 0.583109 0.745834 0.301431
328 2 0.909714 0.624444 0.363797
231 1 0.79861 0.601012 0.296906
250 1 0.868966 0.739736 0.317704
275 1 0.960555 0.620139 0.257615
341 2 0.888751 0.505431 0.294237
149 1 0.983561 0.506181 0.370267
152 1 0.696827 0.856846 0.383117
76 1 0.564755 0.887802 0.276234
131 1 0.7151 0.957183 0.251635
167 1 0.969403 0.823717 0.245228
237 1 0.838117 0.914652 0.342097
91 1 0.559753 0.615012 0.501058
346 2 0.684494 0.644026 0.50716
219 1 0.721191 0.541162 0.573305
345 2 0.587201 0.711403 0.427431
80 1 0.67417 0.538657 0.421216
117 1 0.974212 0.61168 0.539098
249 1 0.822716 0.613619 0.457776
333 2 0.915113 0.709192 0.467533
103 1 0.780485 0.694993 0.589844
85 1 0.638194 0.764189 0.53232
175 1 0.608384 0.909006 0.572496
121 1 0.539815 0.832509 0.437518
3 1 0.616462 0.982521 0.427818
53 1 0.925123 0.988571 0.464835
197 1 0.765905 0.952605 0.48398
73 1 0.811981 0.782646 0.464731
44 1 0.960053 0.84266 0.435913
317 2 0.884161 0.864259 0.545316
71 1 0.944519 0.753452 0.585042
331 2 0.749132 0.605642 0.677562
177 1 0.547785 0.516683 0.62868
214 1 0.630799 0.650567 0.641461
139 1 0.738246 0.733636 0.738679
244 1 0.657456 0.519937 0.735336
81 1 0.814421 0.500672 0.687362
335 2 0.909605 0.549645 0.757096
213 1 0.894525 0.679243 0.725051
75 1 0.971492 0.515063 0.648739
303 2 0.880313 0.602571 0.616242
338 2 0.595595 0.991184 0.673177
235 1 0.690473 0.907342 0.729093
78 1 0.596719 0.794064 0.687902
186 1 0.872873 0.967363 0.623546
124 1 0.85607 0.986852 0.785555
127 1 0.764181 0.858965 0.606437
7 1 0.880576 0.839758 0.721181
94 1 0.721094 0.696019 0.921332
64 1 0.55994 0.601408 0.960826
342 2 0.535154 0.725362 0.902754
174 1 0.538029 0.520199 0.82226
283 1 0.690015 0.512469 0.896362
65 1 0.616009 0.665789 0.804032
122 1 0.789193 0.605743 0.812715
40 1 0.87635 0.715909 0.977904
243 1 0.935492 0.619948 0.871306
293 2 0.84447 0.721469 0.843878
215 1 0.807009 0.586157 0.992988
330 2 0.535184 0.958069 0.935003
38 1 0.6339 0.809296 0.869776
146 1 0.657146 0.961912 0.876461
2 1 0.700291 0.845195 0.99798
359 2 0.568381 0.895956 0.804497
247 1 0.795251 0.982695 0.944005
266 1 0.791193 0.837746 0.867146
79 1 0.954498 0.781816 0.867802
202 1 0.943255 0.953941 0.909204
ITEM: TIMESTEP
3000000
ITEM: NUMBER OF ATOMS
360
ITEM: BOX BOUNDS pp pp pp
0.0000000000000000e+00 6.6943295008216896e+00
0.0000000000000000e+00 6.6943295008216896e+00
0.0000000000000000e+00 6.6943295008216896e+00
ITEM: ATOMS id type xs ys zs
147 1 0.186341 0.180255 0.0594427
134 1 0.0541659 0.097509 0.0946147
324 2 0.17114 0.111632 0.165386
25 1 0.264337 0.405141 0.149103
92 1 0.32865 0.24887 0.0596584
17 1 0.298149 0.117224 0.137107
14 1 0.430594 0.0576217 0.0511463
251 1 0.452547 0.200134 0.139144
146 1 0.0511409 0.27728 0.0671338
348 2 0.223472 0.319741 0.0752077
98 1 0.122969 0.35087 0.176409
163 1 0.00859857 0.417799 0.0485461
114 1 0.392269 0.352281 0.192876
188 1 0.163847 0.406879 0.00609803
174 1 0.389352 0.481806 0.10828
198 1 0.456375 0.34123 0.0409694
20 1 0.210329 0.0225222 0.0431146
228 1 0.216739 0.117289 0.280584
153 1 0.055454 0.0408121 0.248515
23 1 0.373252 0.492388 0.275688
195 1 0.141176 0.0288772 0.378845
356 2 0.490408 0.430163 0.23794
29 1 0.375163 0.167614 0.268384
39 1 0.093532 0.208392 0.211121
30 1 0.463285 0.0780933 0.382599
27 1 0.14832 0.317945 0.331974
240 1 0.0372675 0.416785 0.314553
351 2 0.0196693 0.284377 0.295907
217 1 0.178342 0.467535 0.276618
212 1 0.445327 0.361317 0.364415
61 1 0.296663 0.368341 0.315498
304 2 0.00564923 0.0663547 0.361342
12 1 0.0828007 0.169846 0.384002
104 1 0.423432 0.0190528 0.200654
69 1 0.243772 0.25173 0.204111
9 1 0.162796 0.160617 0.527379
53 1 0.0363782 0.0619948 0.500258
18 1 0.026988 0.219045 0.555286
281 1 0.314903 0.221539 0.56706
158 1 0.438236 0.0965788 0.543499
278 1 0.302423 0.0853298 0.449273
193 1 0.40666 0.224831 0.427832
241 1 0.174933 0.318276 0.493166
200 1 0.0901401 0.447431 0.463963
352 2 0.0509725 0.347445 0.547125
97 1 0.0149391 0.307667 0.42157
207 1 0.474615 0.424416 0.503019
126 1 0.473505 0.261833 0.578608
132 1 0.329408 0.358361 0.497597
181 1 0.239188 0.489019 0.419716
189 1 0.183951 0.0029806 0.525664
191 1 0.301761 0.483616 0.568249
292 2 0.359496 0.445877 0.402632
93 1 0.251652 0.222143 0.408083
11 1 0.108644 0.0837137 0.656236
295 2 0.190616 0.115401 0.76249
26 1 0.271923 0.214791 0.719619
67 1 0.259365 0.0798035 0.630619
233 1 0.409427 0.141148 0.690983
15 1 0.396593 0.44226 0.727852
180 1 0.150002 0.273878 0.642384
42 1 0.13079 0.378615 0.770759
164 1 0.014841 0.380928 0.672912
54 1 0.245729 0.492479 0.741147
45 1 0.285326 0.34967 0.650291
125 1 0.319176 0.0397968 0.766845
156 1 0.422464 0.287853 0.724111
119 1 0.150853 0.448257 0.611291
325 2 0.496983 0.181094 0.767385
308 2 0.00990476 0.313963 0.791494
307 2 0.396776 0.369212 0.614576
239 1 0.0699351 0.172984 0.953754
186 1 0.187913 0.0872383 0.885945
109 1 0.431097 0.346828 0.880232
340 2 0.0658923 0.476224 0.947526
271 1 0.136135 0.221715 0.809443
347 2 0.258559 0.190948 0.850418
301 2 0.434325 0.090788 0.915297
282 1 0.386832 0.186958 0.837836
130 1 0.316518 0.122009 0.963958
143 1 0.313941 0.38723 0.987868
360 2 0.345222 0.260388 0.926113
216 1 0.447272 0.491146 0.960675
199 1 0.0678308 0.342145 0.916663
8 1 0.450169 0.19985 0.978036
336 2 0.203491 0.420005 0.877691
165 1 0.212444 0.271217 0.939585
16 1 0.288863 0.335477 0.818399
266 1 0.0615163 0.0922006 0.804371
72 1 0.0740829 0.0100802 0.947469
161 1 0.457795 0.0326692 0.803406
194 1 0.113421 0.659381 0.132815
19 1 0.244189 0.701159 0.0397691
138 1 0.137879 0.830278 0.0171377
116 1 0.249655 0.567483 0.191798
60 1 0.249387 0.540819 0.0303216
59 1 0.374796 0.646936 0.110164
101 1 0.116262 0.501438 0.13578
50 1 0.153506 0.81187 0.167064
329 2 0.330745 0.999838 0.119578
262 1 0.467759 0.749567 0.0382804
40 1 0.0797099 0.938832 0.118662
141 1 0.269781 0.866775 0.0674534
248 1 0.41928 0.89727 0.0714392
321 2 0.348989 0.779579 0.115979
208 1 0.203325 0.97433 0.197729
300 2 0.131391 0.653499 0.278717
149 1 0.0432916 0.568982 0.246599
261 1 0.181158 0.769577 0.359746
155 1 0.432936 0.74446 0.21052
172 1 0.0399194 0.743815 0.283838
133 1 0.279914 0.639479 0.344919
322 2 0.360343 0.625624 0.22927
205 1 0.479059 0.588442 0.211687
128 1 0.272595 0.737342 0.221315
121 1 0.449202 0.659728 0.340269
311 2 0.231132 0.868635 0.279066
226 1 0.107882 0.896151 0.296789
353 2 0.0300238 0.680532 0.397107
192 1 0.359199 0.800562 0.352882
171 1 0.321024 0.989764 0.314651
342 2 0.463117 0.889692 0.239007
206 1 0.495983 0.510722 0.364115
48 1 0.341006 0.878258 0.208261
87 1 0.12456 0.601205 0.397207
154 1 0.114677 0.693958 0.536391
303 2 0.166159 0.538164 0.525763
259 1 0.0287783 0.547783 0.570143
201 1 0.340437 0.955471 0.519286
274 1 0.250618 0.63221 0.516117
5 1 0.398511 0.683635 0.561931
136 1 0.387202 0.562164 0.454302
305 2 0.109975 0.913692 0.433183
3 1 0.0384661 0.797394 0.434697
105 1 0.165153 0.84606 0.529774
317 2 0.0238542 0.788486 0.57523
106 1 0.0266546 0.915746 0.569163
285 1 0.315411 0.794851 0.498648
254 1 0.235981 0.900673 0.40196
137 1 0.483456 0.761513 0.453847
337 2 0.426721 0.855111 0.529593
220 1 0.451434 0.916344 0.404631
190 1 0.0382901 0.676705 0.682657
185 1 0.15452 0.709835 0.77881
115 1 0.0835074 0.525759 0.731666
102 1 0.247278 0.7503 0.645945
204 1 0.174221 0.609628 0.648537
355 2 0.130358 0.955943 0.651909
68 1 0.328559 0.595479 0.677258
211 1 0.469902 0.695679 0.699898
252 1 0.38259 0.822633 0.650628
62 1 0.417213 0.984437 0.66214
6 1 0.258017 0.920013 0.650456
203 1 0.181782 0.985624 0.777927
43 1 0.0994165 0.815365 0.673265
162 1 0.224138 0.840771 0.782218
107 1 0.0243682 0.954358 0.740255
47 1 0.332397 0.723126 0.776226
333 2 0.485558 0.82355 0.738686
297 2 0.249447 0.620196 0.778314
145 1 0.4487 0.541984 0.599628
58 1 0.0957208 0.722488 0.921425
41 1 0.253127 0.667738 0.889469
33 1 0.155741 0.549553 0.853233
1 1 0.00559445 0.616545 0.855802
4 1 0.37053 0.969716 0.944759
255 1 0.409217 0.59422 0.807676
120 1 0.466629 0.736102 0.855646
65 1 0.381793 0.634881 0.954606
349 2 0.462505 0.858289 0.913612
302 2 0.209684 0.784361 0.893167
35 1 0.10141 0.866565 0.8662
57 1 0.225004 0.920781 0.928942
258 1 0.303886 0.508152 0.888624
160 1 0.338075 0.801346 0.946161
243 1 0.104552 0.589894 0.997637
265 1 0.380842 0.89222 0.81648
269 1 0.670664 0.226477 0.1161
38 1 0.570542 0.121481 0.0315865
64 1 0.692493 0.0526817 0.154007
2 1 0.77967 0.132706 0.0412993
22 1 0.922582 0.186618 0.0952497
246 1 0.845769 0.0860146 0.187085
10 1 0.804481 0.235284 0.19727
95 1 0.546989 0.317088 0.181801
327 2 0.562538 0.26298 0.0513105
229 1 0.549938 0.456541 0.120911
284 1 0.700184 0.380617 0.158492
338 2 0.704867 0.4807 0.0721709
277 1 0.854935 0.4191 0.08658
256 1 0.953514 0.323228 0.183948
286 1 0.803821 0.288053 0.0335334
312 2 0.918643 0.314182 0.0469766
89 1 0.647516 0.354405 0.017149
309 2 0.79077 0.0042468 0.0778876
291 2 0.997429 0.43977 0.188285
84 1 0.642061 0.134055 0.361932
341 2 0.723841 0.139123 0.242329
257 1 0.576684 0.132901 0.214858
74 1 0.713608 0.0097802 0.304608
70 1 0.518456 0.224023 0.320659
316 2 0.771484 0.312352 0.370328
232 1 0.805954 0.173501 0.340903
210 1 0.95203 0.159958 0.266237
21 1 0.877479 0.0444089 0.350275
179 1 0.675949 0.26137 0.284501
263 1 0.591984 0.407548 0.305096
135 1 0.880918 0.311533 0.310308
182 1 0.893282 0.466585 0.270381
80 1 0.740234 0.411258 0.29753
344 2 0.824956 0.364342 0.204115
350 2 0.943513 0.404974 0.388977
209 1 0.571638 0.160964 0.509252
118 1 0.661258 0.027793 0.579604
150 1 0.721443 0.218607 0.465721
167 1 0.747771 0.0666539 0.462547
157 1 0.941683 0.168866 0.428382
293 2 0.786972 0.0327886 0.59187
159 1 0.839499 0.162368 0.551592
326 2 0.588749 0.45492 0.436795
253 1 0.571635 0.316074 0.435677
236 1 0.64058 0.313105 0.575353
73 1 0.701036 0.383333 0.448989
91 1 0.629815 0.483503 0.554674
231 1 0.830696 0.467347 0.420182
273 1 0.775813 0.400488 0.577178
290 2 0.769183 0.265763 0.572153
219 1 0.94329 0.430717 0.525041
247 1 0.859504 0.301182 0.473967
173 1 0.601393 0.00272979 0.41683
37 1 0.557108 0.11603 0.673833
142 1 0.757922 0.0702209 0.699683
49 1 0.698375 0.182219 0.629188
314 2 0.505102 0.374906 0.771248
267 1 0.890832 0.296747 0.630793
124 1 0.910871 0.0747514 0.768931
178 1 0.947247 0.0995518 0.622895
144 1 0.840557 0.205274 0.737212
298 2 0.896741 0.422421 0.651046
187 1 0.678117 0.170774 0.791371
108 1 0.58484 0.271746 0.717507
51 1 0.53388 0.410773 0.648559
320 2 0.686904 0.41224 0.656057
31 1 0.742201 0.326891 0.717559
88 1 0.884284 0.351716 0.763252
81 1 0.78919 0.47851 0.714998
24 1 0.996205 0.215585 0.70671
148 1 0.682188 0.20266 0.94922
264 1 0.546771 0.141047 0.869205
224 1 0.910497 0.373337 0.928714
235 1 0.689201 0.0261176 0.964155
339 2 0.761373 0.411384 0.824086
96 1 0.792039 0.109749 0.869448
129 1 0.933608 0.0852207 0.965352
323 2 0.847493 0.201414 0.937448
32 1 0.944572 0.198508 0.854309
86 1 0.569347 0.285402 0.907601
296 2 0.540602 0.410116 0.941486
238 1 0.524249 0.490109 0.828319
77 1 0.770933 0.281427 0.867419
244 1 0.768497 0.428672 0.952211
272 1 0.631221 0.0178433 0.80917
221 1 0.999404 0.4483 0.828057
177 1 0.633347 0.385836 0.804932
250 1 0.674452 0.616537 0.0987273
113 1 0.930445 0.98097 0.0977954
357 2 0.987521 0.668648 0.182366
234 1 0.941999 0.553938 0.128408
79 1 0.842886 0.683521 0.115354
34 1 0.783046 0.507298 0.179691
202 1 0.993976 0.794913 0.146539
168 1 0.802769 0.564425 0.0364007
299 2 0.585096 0.712194 0.0636926
215 1 0.8508 0.844383 0.0859285
82 1 0.555702 0.973651 0.084457
83 1 0.702948 0.906193 0.0668764
99 1 0.555796 0.832352 0.146817
242 1 0.718826 0.782652 0.157608
184 1 0.799293 0.933024 0.196412
196 1 0.983291 0.684106 0.0303653
283 1 0.515848 0.603653 0.0472169
330 2 0.872616 0.753426 -0.000274465
343 2 0.659589 0.915047 0.186785
122 1 0.741868 0.751017 0.00711705
359 2 0.57194 0.608416 0.311142
183 1 0.74148 0.653489 0.246763
36 1 0.665829 0.544323 0.371758
287 1 0.653695 0.714631 0.370777
280 1 0.631217 0.53169 0.220155
152 1 0.856269 0.803236 0.237829
170 1 0.593828 0.69103 0.220578
90 1 0.91179 0.733845 0.380252
288 1 0.896531 0.622408 0.266816
315 2 0.783834 0.532575 0.304399
294 2 0.795862 0.738955 0.335031
334 2 0.965916 0.83653 0.333163
55 1 0.567493 0.981184 0.252957
112 1 0.719448 0.837063 0.29656
166 1 0.556323 0.822813 0.310952
279 1 0.854559 0.886722 0.371634
100 1 0.960341 0.925379 0.241094
268 1 0.810621 0.624172 0.398709
275 1 0.707316 0.619665 0.521331
46 1 0.548084 0.620704 0.458952
332 2 0.627255 0.71761 0.500947
245 1 0.777769 0.760939 0.461781
227 1 0.959614 0.679875 0.515883
117 1 0.851 0.544615 0.56879
169 1 0.964999 0.562986 0.401932
140 1 0.888077 1.00034 0.50221
71 1 0.690208 0.783869 0.588796
237 1 0.7526 0.910264 0.496739
85 1 0.629454 0.839599 0.455205
306 2 0.64648 0.902681 0.563589
66 1 0.907887 0.827808 0.511255
319 2 0.73273 0.505319 0.473616
131 1 0.537806 0.797658 0.588949
28 1 0.510906 0.952487 0.535776
260 1 0.832071 0.713232 0.593299
310 2 0.818152 0.84808 0.599521
63 1 0.993314 0.948563 0.404285
110 1 0.616564 0.526657 0.703866
249 1 0.722579 0.653119 0.676315
345 2 0.720846 0.538559 0.623723
78 1 0.576731 0.633939 0.607313
44 1 0.938288 0.806247 0.665692
354 2 0.898713 0.8889 0.767967
213 1 0.872741 0.682663 0.757457
328 2 0.929855 0.648977 0.631031
111 1 0.932528 0.545885 0.699556
358 2 0.672369 0.901697 0.773771
218 1 0.615627 0.783753 0.737959
151 1 0.573465 0.944757 0.679301
197 1 0.733652 0.919969 0.66676
123 1 0.888468 0.950183 0.65463
127 1 0.788861 0.801598 0.745229
335 2 0.786824 0.591417 0.794309
270 1 0.579053 0.640826 0.796008
289 2 0.502443 0.578532 0.706145
7 1 0.994178 0.775984 0.794941
225 1 0.616356 0.666686 0.941755
52 1 0.693269 0.52758 0.846174
175 1 0.72113 0.698744 0.833912
313 2 0.730212 0.606036 0.94097
214 1 0.616089 0.503834 0.969789
276 1 0.805961 0.958097 0.80817
230 1 0.832978 0.949672 0.972036
331 2 0.504741 0.599806 0.912173
13 1 0.944987 0.534024 0.971459
75 1 0.853906 0.659057 0.921291
318 2 0.975064 0.76099 0.91937
176 1 0.526357 0.992361 0.940098
76 1 0.545624 0.891113 0.824369
139 1 0.701649 0.873473 0.897058
346 2 0.609255 0.779126 0.870968
223 1 0.856753 0.499994 0.845175
103 1 0.851365 0.811044 0.890668
94 1 0.951155 0.937594 0.881339
56 1 0.571774 0.839365 0.974085
222 1 0.991805 0.861601 0.998355
ITEM: TIMESTEP
6000000
ITEM: NUMBER OF ATOMS
360
ITEM: BOX BOUNDS pp pp pp
0.0000000000000000e+00 6.6943295008216896e+00
0.0000000000000000e+00 6.6943295008216896e+00
0.0000000000000000e+00 6.6943295008216896e+00
ITEM: ATOMS id type xs ys zs
134 1 0.0755718 0.0820814 0.0352973
309 2 0.132079 0.172241 0.126218
147 1 0.215658 0.13218 0.0348374
40 1 0.152456 0.0520487 0.166632
146 1 0.0958833 0.254698 0.0370153
98 1 0.130857 0.329549 0.185722
25 1 0.285921 0.36545 0.152422
14 1 0.405469 0.0932207 0.0198627
17 1 0.318219 0.0644113 0.146575
251 1 0.457732 0.186779 0.144189
92 1 0.332634 0.234979 0.0578539
74 1 0.475211 0.0351805 0.156366
101 1 0.0627868 0.49487 0.125401
348 2 0.211389 0.279151 0.0872444
188 1 0.171125 0.405981 0.0574595
340 2 0.0483601 0.379977 0.0649355
198 1 0.454807 0.356072 0.0950428
256 1 0.00828396 0.214729 0.164404
69 1 0.243522 0.216626 0.197973
216 1 0.441388 0.4808 0.00161109
143 1 0.31821 0.377412 0.00708192
39 1 0.119869 0.168265 0.266815
12 1 0.248603 0.104652 0.391975
23 1 0.354748 0.421988 0.285842
342 2 0.41475 0.195035 0.381095
321 2 0.24176 0.0907151 0.261726
104 1 0.366437 0.12541 0.280463
153 1 0.137511 0.00398126 0.317307
217 1 0.206762 0.438351 0.375507
351 2 0.011449 0.28376 0.264429
116 1 0.185975 0.465332 0.22606
240 1 0.0401992 0.411212 0.27879
27 1 0.142449 0.299637 0.332063
303 2 0.253317 0.343109 0.270052
29 1 0.385307 0.278863 0.233776
356 2 0.474606 0.470005 0.343026
205 1 0.49415 0.486316 0.215595
212 1 0.437661 0.311307 0.369979
193 1 0.280964 0.259961 0.382799
9 1 0.0854364 0.150325 0.425636
281 1 0.200886 0.13521 0.540539
53 1 0.0303722 0.0599578 0.548609
18 1 0.0104398 0.24651 0.567076
220 1 0.351614 0.175279 0.499839
181 1 0.454864 0.301577 0.554251
307 2 0.395166 0.424167 0.566913
132 1 0.193142 0.44544 0.534353
241 1 0.145509 0.283012 0.494032
352 2 0.0613288 0.380808 0.56721
200 1 0.0687679 0.404653 0.435587
201 1 0.449717 0.0689712 0.405661
253 1 0.472058 0.0715574 0.55912
61 1 0.334913 0.401017 0.455841
93 1 0.147739 0.0038544 0.476877
233 1 0.288953 0.31727 0.579695
203 1 0.193848 0.0497341 0.71592
26 1 0.241785 0.188752 0.683115
347 2 0.427293 0.0249384 0.688308
171 1 0.0906597 0.15121 0.657327
16 1 0.300901 0.289947 0.789524
45 1 0.275285 0.452414 0.680411
67 1 0.311769 0.0496491 0.619582
271 1 0.124405 0.228089 0.794514
125 1 0.343114 0.0979156 0.781026
62 1 0.397476 0.192368 0.658919
189 1 0.155757 0.316614 0.653368
119 1 0.116866 0.470073 0.676077
156 1 0.392651 0.342256 0.690563
314 2 0.492826 0.359636 0.778216
180 1 0.128145 0.376691 0.791234
311 2 0.138437 0.0192176 0.602649
266 1 0.0546209 0.0798734 0.787987
15 1 0.420775 0.501066 0.732193
186 1 0.18024 0.0743152 0.894925
161 1 0.478284 0.00938377 0.808107
239 1 0.0358917 0.190369 0.910249
258 1 0.278925 0.432786 0.835535
130 1 0.320028 0.151467 0.917933
301 2 0.427118 0.0823273 0.894993
8 1 0.472867 0.239393 0.980793
282 1 0.434433 0.227289 0.824733
165 1 0.217485 0.264241 0.939587
42 1 0.0879218 0.350206 0.925885
336 2 0.213532 0.408474 0.934398
360 2 0.336974 0.284098 0.922955
109 1 0.417044 0.377808 0.889972
323 2 0.256624 0.0127499 0.817741
295 2 0.239761 0.177366 0.820336
13 1 0.00833833 0.476089 0.984688
194 1 0.063554 0.660992 0.139687
128 1 0.222693 0.581287 0.130484
19 1 0.200232 0.723492 0.0651935
20 1 0.206362 0.978731 0.0290508
248 1 0.377798 0.938819 0.0581611
262 1 0.486537 0.747487 0.0872645
174 1 0.361769 0.513176 0.142898
65 1 0.374644 0.637475 0.0413726
141 1 0.339453 0.782393 0.106407
208 1 0.258525 0.906215 0.179096
50 1 0.109772 0.811235 0.173323
329 2 0.193906 0.855889 0.0680642
113 1 0.053902 0.938151 0.0916647
318 2 0.0798284 0.71201 0.0138647
243 1 0.118141 0.580128 0.0151833
349 2 0.42093 0.827795 0.00218678
59 1 0.402088 0.659982 0.190627
300 2 0.148753 0.59944 0.236188
87 1 0.117092 0.555482 0.369523
172 1 0.0848816 0.694226 0.284616
353 2 0.0321453 0.641106 0.387586
105 1 0.208125 0.708834 0.367276
334 2 0.117167 0.931406 0.20283
155 1 0.47847 0.756387 0.310761
133 1 0.27247 0.588441 0.287205
322 2 0.443167 0.637043 0.328648
261 1 0.23753 0.720907 0.22123
100 1 0.0219649 0.889249 0.291756
226 1 0.181718 0.855588 0.320848
149 1 0.00365939 0.562542 0.255938
48 1 0.431599 0.912374 0.223538
228 1 0.303986 0.969197 0.321442
192 1 0.3275 0.81126 0.298052
121 1 0.447403 0.902543 0.389179
341 2 0.415304 0.779909 0.207757
154 1 0.116595 0.681303 0.496174
259 1 0.0559551 0.531053 0.534994
136 1 0.234924 0.561156 0.453816
319 2 0.391856 0.631433 0.504111
274 1 0.417401 0.739018 0.579464
102 1 0.272003 0.697274 0.534764
145 1 0.480965 0.567347 0.567446
209 1 0.321483 0.832258 0.461626
206 1 0.376946 0.530477 0.414514
6 1 0.224584 0.921194 0.59686
106 1 0.0403072 0.905862 0.524039
254 1 0.16613 0.824242 0.489022
317 2 0.0359946 0.772989 0.550631
3 1 0.037442 0.787861 0.419886
278 1 0.401999 0.923673 0.59323
191 1 0.328498 0.537948 0.566113
195 1 0.308364 0.984983 0.470909
337 2 0.097664 0.911539 0.405693
207 1 0.356 0.693413 0.405713
115 1 0.0836831 0.608881 0.74684
185 1 0.192478 0.730722 0.742313
328 2 0.0571755 0.730381 0.728729
190 1 0.00465865 0.66934 0.627239
333 2 0.447162 0.892067 0.710157
54 1 0.234966 0.581199 0.789596
68 1 0.33866 0.65274 0.690315
297 2 0.490511 0.658801 0.670832
211 1 0.447678 0.760945 0.726835
43 1 0.107921 0.79814 0.642115
204 1 0.19733 0.598086 0.62909
252 1 0.331937 0.938686 0.746144
162 1 0.184546 0.89717 0.740034
107 1 0.0511291 0.949212 0.673072
5 1 0.309988 0.807189 0.658654
330 2 0.0831227 0.959707 0.796336
58 1 0.115308 0.672994 0.881809
47 1 0.3056 0.799695 0.824452
60 1 0.271835 0.525179 0.989683
41 1 0.26622 0.680081 0.922941
255 1 0.374803 0.554867 0.871417
120 1 0.439625 0.715591 0.919511
331 2 0.486538 0.578588 0.939156
57 1 0.202211 0.914869 0.877749
302 2 0.183585 0.789349 0.867734
138 1 0.0995497 0.834277 0.977759
35 1 0.0619761 0.826695 0.811261
72 1 0.0558184 0.979724 0.925363
265 1 0.438686 0.862007 0.874624
33 1 0.135811 0.506806 0.88965
160 1 0.277219 0.838686 0.972479