ITEM: TIMESTEP
100000
ITEM: NUMBER OF ATOMS
400
ITEM: BOX BOUNDS pp pp pp
0.0000000000000000e+00 2.3094010767585029e+01
0.0000000000000000e+00 2.3094010767585029e+01
-5.7735026918962573e-01 5.7735026918962573e-01
ITEM: ATOMS id type xs ys zs
319 1 0.0785471 0.0101752 0.5
68 1 0.209665 0.91661 0.5
55 1 0.16954 0.938405 0.5
310 1 0.299409 0.927376 0.5
364 1 0.3326 0.0411092 0.5
352 1 0.359156 0.00745513 0.5
389 1 0.585655 0.0688369 0.5
322 1 0.533051 0.0172111 0.5
7 1 0.77024 0.0277839 0.5
165 1 0.72945 0.142041 0.5
107 1 0.0519432 0.174857 0.5
181 1 0.963921 0.171219 0.5
136 1 0.286052 0.0229849 0.5
221 1 0.260156 0.851716 0.5
215 1 0.337759 0.810636 0.5
14 1 0.653434 0.145621 0.5
234 1 0.69883 0.0379196 0.5
327 1 0.721523 0.09882 0.5
233 1 0.683992 0.117447 0.5
214 1 0.813092 0.0256124 0.5
177 1 0.973272 0.943255 0.5
372 1 0.250428 0.90415 0.5
333 1 0.193521 0.0395716 0.5
226 1 0.188096 0.0863894 0.5
50 1 0.285178 0.157579 0.5
289 1 0.372509 0.0516766 0.5
275 1 0.417513 0.0200652 0.5
48 1 0.434572 0.971105 0.5
257 1 0.498805 0.993676 0.5
307 1 0.774497 0.199696 0.5
101 1 0.669444 0.0727692 0.5
222 1 0.818474 0.964799 0.5
156 1 0.803295 0.0697957 0.5
344 1 0.843552 0.144686 0.5
336 1 0.955054 0.126027 0.5
368 1 0.960774 0.225538 0.5
161 1 0.206878 0.981472 0.5
375 1 0.254278 0.948575 0.5
230 1 0.304514 0.194978 0.5
253 1 0.49601 0.0532537 0.5
40 1 0.45327 0.0533351 0.5
334 1 0.552362 0.117584 0.5
283 1 0.581554 0.163051 0.5
224 1 0.672751 0.212733 0.5
86 1 0.00757143 0.176211 0.5
267 1 0.147864 0.0644893 0.5
46 1 0.0528263 0.102715 0.5
278 1 0.242333 0.0179217 0.5
299 1 0.35726 0.191786 0.5
339 1 0.628634 0.0451801 0.5
79 1 0.688993 0.170457 0.5
400 1 0.786515 0.158192 0.5
90 1 0.643028 0.257782 0.5
205 1 0.924316 0.0994865 0.5
370 1 0.853254 0.0775782 0.5
199 1 0.094635 0.170439 0.5
337 1 0.156876 0.116494 0.5
160 1 0.242256 0.0993012 0.5
149 1 0.292927 0.101438 0.5
28 1 0.321934 0.881455 0.5
349 1 0.377199 0.0932618 0.5
6 1 0.600602 0.118234 0.5
394 1 0.498476 0.163152 0.5
241 1 0.539543 0.17958 0.5
157 1 0.817667 0.108573 0.5
38 1 0.964593 0.0562662 0.5
183 1 0.917678 0.223579 0.5
102 1 0.875168 0.29729 0.5
133 1 0.133375 0.155204 0.5
153 1 0.0934987 0.125503 0.5
346 1 0.406159 0.355179 0.5
223 1 0.324816 0.141484 0.5
127 1 0.318115 0.968871 0.5
32 1 0.454046 0.14373 0.5
178 1 0.582391 0.338942 0.5
73 1 0.727936 0.185065 0.5
357 1 0.597666 0.237599 0.5
12 1 0.705809 0.245824 0.5
295 1 0.747695 0.236976 0.5
290 1 0.0903926 0.0508932 0.5
351 1 0.120909 0.267204 0.5
106 1 0.143489 0.199366 0.5
261 1 0.220628 0.275803 0.5
108 1 0.334687 0.0872081 0.5
138 1 0.416484 0.0748789 0.5
201 1 0.457231 0.0976586 0.5
324 1 0.454426 0.265216 0.5
228 1 0.507201 0.207805 0.5
168 1 0.788366 0.246466 0.5
3 1 0.883387 0.12524 0.5
304 1 0.938297 0.261945 0.5
212 1 0.178859 0.169078 0.5
385 1 0.203823 0.128915 0.5
41 1 0.297524 0.241643 0.5
124 1 0.311581 0.290221 0.5
74 1 0.466806 0.197364 0.5
166 1 0.443826 0.330453 0.5
207 1 0.60928 0.285838 0.5
292 1 0.728713 0.443187 0.5
335 1 0.722657 0.397696 0.5
95 1 0.102772 0.229671 0.5
111 1 0.0722361 0.282062 0.5
282 1 0.223525 0.220225 0.5
225 1 0.192121 0.384315 0.5
154 1 0.250105 0.307572 0.5
176 1 0.400516 0.310441 0.5
236 1 0.385007 0.245864 0.5
264 1 0.500579 0.119656 0.5
159 1 0.393449 0.163885 0.5
142 1 0.558505 0.216619 0.5
163 1 0.652536 0.316897 0.5
84 1 0.715967 0.287995 0.5
197 1 0.904631 0.392278 0.5
71 1 0.794434 0.298257 0.5
10 1 0.871203 0.219924 0.5
269 1 0.81825 0.206276 0.5
94 1 0.0482604 0.319595 0.5
27 1 0.175812 0.325538 0.5
44 1 0.356919 0.334519 0.5
195 1 0.417074 0.20029 0.5
371 1 0.677356 0.350634 0.5
202 1 0.624202 0.189199 0.5
158 1 0.807211 0.397399 0.5
274 1 0.0192043 0.28687 0.5
34 1 0.0619125 0.214761 0.5
345 1 0.126735 0.32765 0.5
249 1 0.180055 0.227124 0.5
194 1 0.216296 0.340346 0.5
326 1 0.312618 0.429521 0.5
242 1 0.272442 0.381618 0.5
376 1 0.57182 0.402192 0.5
297 1 0.447692 0.382119 0.5
316 1 0.600236 0.447913 0.5
232 1 0.648807 0.451904 0.5
17 1 0.721336 0.330394 0.5
302 1 0.829865 0.25327 0.5
22 1 0.896208 0.260867 0.5
271 1 0.260238 0.197235 0.5
387 1 0.09733 0.393198 0.5
30 1 0.264249 0.438081 0.5
147 1 0.239972 0.477735 0.5
360 1 0.340412 0.239095 0.5
256 1 0.52763 0.327881 0.5
313 1 0.479559 0.302978 0.5
56 1 0.727309 0.488981 0.5
348 1 0.762786 0.403362 0.5
187 1 0.948265 0.352386 0.5
203 1 0.837105 0.315667 0.5
122 1 0.881835 0.349539 0.5
380 1 0.943626 0.307829 0.5
272 1 0.172869 0.275055 0.5
341 1 0.291061 0.328672 0.5
57 1 0.396587 0.428412 0.5
227 1 0.356866 0.291333 0.5
25 1 0.400858 0.480338 0.5
60 1 0.531878 0.371363 0.5
382 1 0.511821 0.271371 0.5
45 1 0.636271 0.396322 0.5
16 1 0.775876 0.453828 0.5
284 1 0.905167 0.452616 0.5
144 1 0.14434 0.419228 0.5
354 1 0.146678 0.374316 0.5
369 1 0.140018 0.465134 0.5
61 1 0.204522 0.450338 0.5
99 1 0.296429 0.467398 0.5
167 1 0.492587 0.350993 0.5
70 1 0.526623 0.456113 0.5
89 1 0.559674 0.279128 0.5
182 1 0.620558 0.484804 0.5
365 1 0.574897 0.487588 0.5
209 1 0.661137 0.498745 0.5
381 1 0.755808 0.356573 0.5
286 1 0.843615 0.521725 0.5
131 1 0.837768 0.360979 0.5
200 1 0.94612 0.490826 0.5
9 1 0.894907 0.498067 0.5
213 1 0.529105 0.587348 0.5
19 1 0.597354 0.525228 0.5
291 1 0.639854 0.544442 0.5
72 1 0.678093 0.401581 0.5
206 1 0.694013 0.531024 0.5
118 1 0.805285 0.503638 0.5
373 1 0.857142 0.401168 0.5
388 1 0.982395 0.318495 0.5
393 1 0.979622 0.266378 0.5
245 1 0.0598983 0.361045 0.5
355 1 0.101248 0.492482 0.5
192 1 0.119295 0.569713 0.5
377 1 0.235508 0.407656 0.5
330 1 0.323125 0.513117 0.5
328 1 0.358996 0.408897 0.5
78 1 0.452841 0.466825 0.5
141 1 0.496907 0.406131 0.5
384 1 0.84516 0.468027 0.5
31 1 0.0502285 0.548944 0.5
123 1 0.936873 0.421453 0.5
350 1 0.9723 0.444509 0.5
331 1 0.271763 0.513923 0.5
132 1 0.336191 0.463964 0.5
146 1 0.635946 0.595075 0.5
37 1 0.676633 0.577215 0.5
135 1 0.759376 0.541633 0.5
262 1 0.801963 0.54668 0.5
175 1 0.817394 0.436641 0.5
317 1 0.989616 0.490268 0.5
180 1 0.0540337 0.402591 0.5
21 1 0.0403828 0.501699 0.5
211 1 0.21188 0.519929 0.5
69 1 0.394503 0.575146 0.5
314 1 0.539775 0.542633 0.5
109 1 0.676251 0.630666 0.5
398 1 0.900903 0.588944 0.5
235 1 0.953004 0.608279 0.5
217 1 0.862647 0.61322 0.5
162 1 0.0188358 0.356399 0.5
301 1 0.01127 0.533764 0.5
65 1 0.0907285 0.532369 0.5
280 1 0.0205073 0.459421 0.5
35 1 0.992003 0.401084 0.5
47 1 0.153659 0.605198 0.5
312 1 0.177408 0.496044 0.5
300 1 0.451012 0.51089 0.5
152 1 0.364858 0.52569 0.5
254 1 0.45621 0.630151 0.5
82 1 0.723799 0.562946 0.5
198 1 0.720369 0.604123 0.5
77 1 0.851644 0.570711 0.5
238 1 0.713657 0.663376 0.5
51 1 0.0217072 0.599216 0.5
76 1 0.0484083 0.678127 0.5
396 1 0.0710495 0.445983 0.5
8 1 -0.000377455 0.756472 0.5
24 1 0.352267 0.567199 0.5
347 1 0.407889 0.525021 0.5
258 1 0.570099 0.605738 0.5
246 1 0.406013 0.705972 0.5
277 1 0.61548 0.686935 0.5
150 1 0.558007 0.690717 0.5
173 1 0.505734 0.725011 0.5
343 1 0.79373 0.58948 0.5
356 1 0.770771 0.6312 0.5
134 1 0.944154 0.550666 0.5
23 1 0.070084 0.5897 0.5
117 1 0.0422363 0.734662 0.5
96 1 0.0030854 0.660945 0.5
103 1 0.29509 0.559008 0.5
196 1 0.455538 0.425175 0.5
306 1 0.598074 0.5725 0.5
83 1 0.659159 0.684206 0.5
119 1 0.908976 0.658332 0.5
219 1 0.859946 0.654931 0.5
358 1 0.945756 0.748645 0.5
240 1 0.0934569 0.764602 0.5
54 1 0.133654 0.524338 0.5
143 1 0.0488671 0.632901 0.5
42 1 0.4883 0.547044 0.5
52 1 0.480109 0.664432 0.5
186 1 0.516708 0.684848 0.5
281 1 0.551723 0.733355 0.5
179 1 0.613887 0.807681 0.5
172 1 0.959822 0.6494 0.5
121 1 0.86938 0.698667 0.5
169 1 0.979639 0.719145 0.5
43 1 0.0671536 0.807209 0.5
397 1 0.386815 0.637928 0.5
185 1 0.489303 0.492533 0.5
145 1 0.352462 0.709236 0.5
362 1 0.437815 0.569153 0.5
116 1 0.440237 0.673669 0.5
210 1 0.515769 0.633037 0.5
18 1 0.578771 0.646397 0.5
288 1 0.737622 0.721102 0.5
395 1 0.98208 0.572196 0.5
268 1 0.8868 0.544654 0.5
204 1 0.11219 0.805414 0.5
285 1 0.191138 0.634694 0.5
308 1 0.196187 0.593198 0.5
67 1 0.475591 0.588017 0.5
63 1 0.442854 0.776854 0.5
296 1 0.525579 0.837224 0.5
85 1 0.528834 0.774051 0.5
128 1 0.62226 0.754208 0.5
244 1 0.67037 0.748307 0.5
303 1 0.812928 0.63507 0.5
320 1 0.92333 0.698986 0.5
81 1 0.928576 0.796282 0.5
216 1 0.883433 0.788471 0.5
58 1 0.14909 0.734125 0.5
315 1 0.25092 0.580108 0.5
220 1 0.284879 0.640699 0.5
193 1 0.317389 0.597845 0.5
263 1 0.572347 0.932354 0.5
80 1 0.690863 0.710881 0.5
392 1 0.687589 0.786154 0.5
237 1 0.82647 0.790856 0.5
191 1 0.792291 0.767538 0.5
2 1 0.899194 0.746358 0.5
130 1 0.994793 0.824881 0.5
276 1 0.105926 0.615053 0.5
273 1 0.189662 0.676022 0.5
112 1 0.1782 0.546658 0.5
270 1 0.35802 0.606171 0.5
148 1 0.365129 0.751408 0.5
88 1 0.485692 0.793887 0.5
323 1 0.455664 0.737433 0.5
287 1 0.659755 0.818613 0.5
126 1 0.790357 0.825998 0.5
170 1 0.807303 0.729885 0.5
325 1 0.0289365 0.791375 0.5
293 1 0.942983 0.891598 0.5
353 1 0.0122261 0.867598 0.5
255 1 0.103729 0.659861 0.5
62 1 0.232297 0.663489 0.5
247 1 0.230324 0.622496 0.5
383 1 0.393668 0.847924 0.5
386 1 0.307379 0.839481 0.5
218 1 0.442215 0.932188 0.5
20 1 0.565413 0.80308 0.5
390 1 0.631494 0.862576 0.5
91 1 0.686517 0.854179 0.5
374 1 0.711528 0.888357 0.5
266 1 0.772169 0.695786 0.5
305 1 0.823373 0.682091 0.5
93 1 0.966666 0.853214 0.5
259 1 0.0610966 0.906266 0.5
359 1 0.554539 0.979749 0.5
59 1 0.577379 0.890399 0.5
379 1 0.736119 0.776068 0.5
26 1 0.856011 0.75444 0.5
184 1 0.923404 0.848102 0.5
318 1 0.154733 0.778727 0.5
279 1 0.20875 0.712479 0.5
251 1 0.281422 0.784437 0.5
140 1 0.257709 0.698599 0.5
164 1 0.343022 0.650865 0.5
100 1 0.456697 0.877223 0.5
248 1 0.472789 0.834939 0.5
155 1 0.487406 0.93065 0.5
366 1 0.622129 0.948617 0.5
66 1 0.618132 0.906641 0.5
298 1 0.586805 0.843174 0.5
49 1 0.726812 0.821936 0.5
188 1 0.833633 0.91888 0.5
321 1 0.832909 0.835337 0.5
39 1 0.879779 0.837524 0.5
309 1 0.0410488 0.0316922 0.5
190 1 0.0381863 0.837333 0.5
125 1 0.119126 0.914415 0.5
29 1 0.128643 0.870983 0.5
115 1 0.404471 0.762461 0.5
340 1 0.433726 0.81795 0.5
75 1 0.500715 0.887834 0.5
4 1 0.890108 0.992579 0.5
110 1 0.956681 0.98787 0.5
114 1 0.204455 0.798298 0.5
113 1 0.171637 0.880724 0.5
294 1 0.327088 0.767724 0.5
15 1 0.189472 0.74716 0.5
87 1 0.724745 0.944093 0.5
139 1 0.765865 0.983553 0.5
92 1 0.869538 0.0351807 0.5
378 1 0.0299264 0.96324 0.5
311 1 0.882202 0.940114 0.5
129 1 0.897625 0.896562 0.5
265 1 0.0754575 0.956026 0.5
104 1 0.11749 0.974452 0.5
329 1 0.21986 0.869959 0.5
229 1 0.182878 0.839108 0.5
338 1 0.374044 0.887527 0.5
171 1 0.392855 0.803191 0.5
391 1 0.353383 0.925347 0.5
98 1 0.652695 0.00502464 0.5
105 1 0.611749 0.993047 0.5
363 1 0.658753 0.904435 0.5
174 1 0.785449 0.881414 0.5
11 1 0.921798 0.160959 0.5
120 1 0.127027 0.017483 0.5
137 1 0.0149227 0.919768 0.5
250 1 0.0180162 0.0670045 0.5
260 1 0.0918695 0.847846 0.5
5 1 0.313187 0.682728 0.5
97 1 0.284071 0.73975 0.5
367 1 0.460709 0.0068806 0.5
64 1 0.400559 0.944524 0.5
1 1 0.700284 0.980396 0.5
252 1 0.668392 0.954427 0.5
13 1 0.792768 0.92777 0.5
342 1 0.9098 0.0384009 0.5
151 1 0.841144 0.874994 0.5
361 1 0.16042 0.98391 0.5
231 1 0.134566 0.696069 0.5
208 1 0.271319 0.0663765 0.5
332 1 0.24319 0.761833 0.5
243 1 0.578892 0.0217025 0.5
189 1 0.533207 0.0735322 0.5
239 1 0.764549 0.0827614 0.5
53 1 0.731262 0.010532 0.5
399 1 0.990458 0.01784 0.5
33 1 0.932622 0.951266 0.5
36 1 0.997394 0.10996 0.5
