LAMMPS (15 Sep 2022)
OMP_NUM_THREADS environment is not set. Defaulting to 1 thread. (src/comm.cpp:98)
  using 1 OpenMP thread(s) per MPI task
# 3d WCA system, random initial configuration

#variable density equal 0.5
variable initial_temperature equal 3.0
variable final_temperature equal 0.1
variable dt equal 0.002
variable tau equal 100*${dt}
variable tau equal 100*0.002
variable thermo_time equal 50000*${dt}
variable thermo_time equal 50000*0.002
variable equil_steps equal 50000
variable run_steps equal 100000

units           lj
atom_style      atomic
dimension       3

lattice         fcc ${density}
lattice         fcc 1.3
Lattice spacing in x,y,z = 1.4544726 1.4544726 1.4544726
region          box block 0 8 0 8 0 8
# number of atom types
create_box      1 box
Created orthogonal box = (0 0 0) to (11.635781 11.635781 11.635781)
  1 by 1 by 1 MPI processor grid
create_atoms    1 box
Created 2048 atoms
  using lattice units in orthogonal box = (0 0 0) to (11.635781 11.635781 11.635781)
  create_atoms CPU = 0.000 seconds
mass 1 1.0

velocity all create ${initial_temperature} 12345
velocity all create 3 12345

pair_style      lj/cut 1.0
#type_1 type_2 epsilon sigma cutoff
pair_coeff      1 1 10.0 0.89089871814 1.0
pair_modify shift yes

timestep ${dt}
timestep 0.002
thermo ${thermo_time}
thermo 100

fix 1 all nvt temp ${initial_temperature} ${initial_temperature} ${tau}
fix 1 all nvt temp 3 ${initial_temperature} ${tau}
fix 1 all nvt temp 3 3 ${tau}
fix 1 all nvt temp 3 3 0.2
run ${equil_steps}
run 50000
Generated 0 of 0 mixed pair_coeff terms from geometric mixing rule
Neighbor list info ...
  update: every = 1 steps, delay = 0 steps, check = yes
  max neighbors/atom: 2000, page size: 100000
  master list distance cutoff = 1.3
  ghost atom cutoff = 1.3
  binsize = 0.65, bins = 18 18 18
  1 neighbor lists, perpetual/occasional/extra = 1 0 0
  (1) pair lj/cut, perpetual
      attributes: half, newton on
      pair build: half/bin/atomonly/newton
      stencil: half/bin/3d
      bin: standard
Per MPI rank memory allocation (min/avg/max) = 3.156 | 3.156 | 3.156 Mbytes
   Step          Temp          E_pair         E_mol          TotEng         Press     
         0   3              0              0              4.4978027      3.8980957    
       100   2.0957849      1.7252977      0              4.86744        36.372656    
       200   2.288624       2.0454129      0              5.4766726      40.929514    
       300   2.5944088      2.2526948      0              6.1424078      43.518351    
       400   2.8145844      2.5519431      0              6.7717582      47.506743    
       500   3.0957135      2.6312625      0              7.2725653      49.117334    
       600   3.1831818      2.7172481      0              7.4896894      50.010398    
       700   3.0707261      2.7129779      0              7.3168179      49.921985    
       800   2.9691786      2.5689296      0              7.0205228      48.1168      
       900   2.9444009      2.5054002      0              6.9198449      47.380596    
      1000   2.9255898      2.6867908      0              7.0730328      49.420105    
      1100   3.0320494      2.7474631      0              7.2933165      50.315481    
      1200   3.0860271      2.7221206      0              7.3489009      49.894196    
      1300   3.0141499      2.6773565      0              7.1963737      49.428227    
      1400   2.9480375      2.5947697      0              7.0146668      48.492855    
      1500   2.9341502      2.600558       0              6.9996342      47.965484    
      1600   2.9278909      2.7591574      0              7.1488493      50.405951    
      1700   3.0117763      2.7872783      0              7.3027369      50.940516    
      1800   3.0978894      2.6524742      0              7.2970393      49.248084    
      1900   3.0122048      2.6228084      0              7.1389094      48.523415    
      2000   2.9374506      2.606326       0              7.0103504      48.660954    
      2100   2.9695048      2.5837827      0              7.0358649      48.015553    
      2200   2.9920696      2.7067685      0              7.1926815      49.596571    
      2300   3.1230966      2.6243951      0              7.3067526      48.605471    
      2400   3.0030016      2.7351681      0              7.237471       50.081034    
      2500   2.9744565      2.6358271      0              7.0953333      48.786573    
      2600   2.9726389      2.5691966      0              7.0259777      48.48097     
      2700   2.9481188      2.671289       0              7.0913079      49.249684    
      2800   3.018351       2.7105149      0              7.2358306      49.765033    
      2900   2.9902826      2.7940939      0              7.2773276      50.631078    
      3000   3.0404629      2.6179321      0              7.1763997      48.681044    
      3100   2.9089171      2.7019535      0              7.0631986      49.448189    
      3200   2.943256       2.6505269      0              7.0632551      48.772936    
      3300   2.9997325      2.740067       0              7.2374686      50.079664    
      3400   3.142025       2.6239856      0              7.3347217      49.018346    
      3500   3.0432639      2.6959251      0              7.2585919      49.273348    
      3600   2.9441562      2.7497652      0              7.1638431      50.227303    
      3700   2.9705632      2.6671372      0              7.1208062      48.928547    
      3800   3.017804       2.6136241      0              7.1381198      48.535402    
      3900   3.0896369      2.601459       0              7.2336515      48.487742    
      4000   3.1094839      2.7051727      0              7.3671211      49.671126    
      4100   3.0291377      2.7505009      0              7.2919889      50.407249    
      4200   2.9722371      2.6533343      0              7.109513       48.720151    
      4300   2.9542537      2.6673173      0              7.0965341      48.990588    
      4400   2.9670415      2.7152832      0              7.1636723      49.43167     
      4500   3.0356546      2.7235044      0              7.2747629      49.989096    
      4600   3.0709563      2.7896751      0              7.3938604      50.828347    
      4700   3.0965324      2.670875       0              7.3134057      49.644354    
      4800   2.9717654      2.6454153      0              7.1008868      49.029156    
      4900   2.942105       2.663416       0              7.0744187      48.905299    
      5000   2.9942321      2.6623565      0              7.1515116      49.090996    
      5100   3.0457068      2.7171521      0              7.2834815      49.99757     
      5200   3.065228       2.7180686      0              7.3136656      49.645196    
      5300   2.9378552      2.6707566      0              7.0753875      49.338986    
      5400   2.9467747      2.5965976      0              7.0146013      48.584014    
      5500   2.9939798      2.6462816      0              7.1350585      48.884964    
      5600   2.9972227      2.7377506      0              7.2313894      49.727718    
      5700   3.0488375      2.6567077      0              7.2277309      49.348917    
      5800   2.9379889      2.6282058      0              7.0330373      48.402793    
      5900   2.9524754      2.5131092      0              6.9396599      47.35807     
      6000   2.9969744      2.565737       0              7.0590035      47.820221    
      6100   2.9523378      2.7471088      0              7.1734531      50.113205    
      6200   3.0788873      2.6088704      0              7.2249463      48.669012    
      6300   2.9815952      2.6964595      0              7.1666685      49.509571    
      6400   2.9555384      2.5412449      0              6.9723878      47.501846    
      6500   2.854125       2.615338       0              6.8944352      48.697916    
      6600   2.9237111      2.6306179      0              7.0140431      48.450007    
      6700   2.9379968      2.7129076      0              7.1177509      49.647565    
      6800   3.033173       2.6654581      0              7.212996       49.423394    
      6900   3.0574673      2.6650797      0              7.2490413      49.450567    
      7000   3.0132394      2.6035463      0              7.1211985      48.449338    
      7100   2.9423028      2.5684564      0              6.9797556      48.024674    
      7200   2.9695593      2.6048561      0              7.0570201      48.119638    
      7300   2.9605378      2.7227041      0              7.1613424      50.131723    
      7400   2.9574965      2.7494793      0              7.183558       50.003166    
      7500   2.9589628      2.7283742      0              7.1646512      50.058685    
      7600   2.9702816      2.6517571      0              7.1050039      49.198585    
      7700   2.9136052      2.5877397      0              6.9560135      48.276661    
      7800   2.858849       2.6692158      0              6.9553954      49.095309    
      7900   2.9708946      2.7139555      0              7.1681214      49.3549      
      8000   3.0128695      2.7022232      0              7.2193208      49.416993    
      8100   2.9324812      2.7747519      0              7.1713259      50.235989    
      8200   3.0109906      2.5611662      0              7.0754467      47.769804    
      8300   2.9288777      2.5683685      0              6.9595399      47.988438    
      8400   2.952162       2.6129165      0              7.0389973      48.517514    
      8500   3.0369884      2.6867073      0              7.2399655      49.400397    
      8600   3.0388782      2.6941775      0              7.2502691      49.61306     
      8700   2.9586242      2.699059       0              7.1348283      49.713823    
      8800   2.9254396      2.6379636      0              7.0239803      48.486586    
      8900   2.9474371      2.6375468      0              7.0565438      48.446658    
      9000   3.0445573      2.7590887      0              7.3236947      50.763612    
      9100   3.0214413      2.7719449      0              7.3018938      50.3812      
      9200   2.9365309      2.7523932      0              7.1550389      50.205498    
      9300   2.9687586      2.6233346      0              7.0742982      48.520381    
      9400   3.0500953      2.5354994      0              7.1084084      47.746096    
      9500   3.0531696      2.7188486      0              7.2963667      49.864596    
      9600   3.0810354      2.7818374      0              7.4011339      50.708042    
      9700   3.0550208      2.7008346      0              7.2811281      49.43375     
      9800   2.9966932      2.6798094      0              7.1726544      49.456802    
      9900   3.001734       2.6155239      0              7.1159264      48.373905    
     10000   2.9646732      2.6246093      0              7.0694477      48.827997    
     10100   3.0407282      2.5807443      0              7.1396094      48.138988    
     10200   3.1102462      2.6494037      0              7.312495       48.967179    
     10300   3.062453       2.6966704      0              7.2881068      49.490955    
     10400   2.9964853      2.6349686      0              7.1275019      48.597614    
     10500   2.950344       2.6602046      0              7.0835597      49.167045    
     10600   2.9447801      2.7044722      0              7.1194855      49.72013     
     10700   3.0237187      2.6721431      0              7.2055066      49.484495    
     10800   3.0248607      2.7300923      0              7.2651679      50.020088    
     10900   3.0141078      2.6997859      0              7.21874        49.659853    
     11000   2.9565004      2.6342693      0              7.0668544      48.393061    
     11100   2.916008       2.6475691      0              7.0194454      48.818494    
     11200   2.9699919      2.6796512      0              7.1324638      49.143525    
     11300   3.115701       2.6163092      0              7.2875787      48.82475     
     11400   3.0530049      2.6749943      0              7.2522655      49.447478    
     11500   3.0521107      2.5927045      0              7.1686351      48.345491    
     11600   3.0646846      2.5279189      0              7.1227011      47.585468    
     11700   2.954852       2.6960405      0              7.1261543      49.403233    
     11800   3.018546       2.6220653      0              7.1476735      48.905915    
     11900   2.9457762      2.7422766      0              7.1587833      50.214227    
     12000   2.958868       2.7173428      0              7.1534777      49.837263    
     12100   2.9799338      2.6887163      0              7.1564344      49.137857    
     12200   2.9967892      2.6281242      0              7.1211131      48.579159    
     12300   2.9850646      2.5787348      0              7.0541455      48.158254    
     12400   3.0071108      2.5824077      0              7.0908713      48.544785    
     12500   2.9531502      2.7954033      0              7.2229656      50.581319    
     12600   3.1032357      2.6490647      0              7.3016453      49.133631    
     12700   2.969208       2.7261022      0              7.1777394      49.931944    
     12800   2.9330854      2.5961317      0              6.9936116      48.438898    
     12900   2.9521795      2.6164623      0              7.0425693      48.476219    
     13000   3.0162693      2.6361275      0              7.1583223      48.818875    
     13100   3.0761287      2.611447       0              7.2233871      48.562757    
     13200   3.0054395      2.6750155      0              7.1809734      49.601559    
     13300   2.9351136      2.5676261      0              6.9681468      47.880891    
     13400   2.8754583      2.6025193      0              6.9136008      48.062227    
     13500   2.9496463      2.6336437      0              7.0559528      48.801616    
     13600   2.9915715      2.6698989      0              7.155065       49.263217    
     13700   2.9882747      2.7216909      0              7.2019143      50.180904    
     13800   2.9946688      2.7095965      0              7.1994063      49.580239    
     13900   2.9689366      2.6080508      0              7.0592811      48.514156    
     14000   2.9154971      2.5894709      0              6.9605813      48.420837    
     14100   3.0215995      2.5727904      0              7.1029766      48.329251    
     14200   2.9446499      2.7945814      0              7.2093996      50.703844    
     14300   3.031362       2.6616733      0              7.206496       49.01119     
     14400   2.9972585      2.6443426      0              7.1380351      49.110226    
     14500   2.9453494      2.6393068      0              7.0551737      48.76394     
     14600   2.9423912      2.540942       0              6.9523738      47.48032     
     14700   2.9769071      2.5472381      0              7.0104183      47.830727    
     14800   2.9750784      2.7342411      0              7.1946797      50.095842    
     14900   3.0276543      2.7016863      0              7.2409502      49.818995    
     15000   2.9786844      2.7102734      0              7.1761183      49.911427    
     15100   2.9237803      2.6360235      0              7.0195525      48.38024     
     15200   2.884131       2.6015098      0              6.9255939      48.09321     
     15300   2.9424823      2.7633432      0              7.1749115      50.183529    
     15400   3.0252658      2.7075422      0              7.2432252      49.65843     
     15500   2.9846158      2.709782       0              7.1845198      49.697604    
     15600   2.9521685      2.6494292      0              7.0755198      48.852019    
     15700   2.96651        2.5975156      0              7.0451079      48.480367    
     15800   2.9978705      2.6993283      0              7.1939383      49.360569    
     15900   3.0980575      2.6873555      0              7.3321727      49.356997    
     16000   3.0225613      2.7287317      0              7.26036        50.093634    
     16100   2.9650437      2.7135238      0              7.1589177      49.45075     
     16200   2.9832056      2.6620227      0              7.1346461      49.259283    
     16300   3.0629721      2.5599385      0              7.1521533      48.025385    
     16400   3.0591904      2.6133676      0              7.1999126      48.556021    
     16500   2.9895142      2.8626815      0              7.3447633      51.44231     
     16600   3.0154479      2.8242555      0              7.3452188      50.935764    
     16700   3.0165892      2.6175324      0              7.1402068      48.700456    
     16800   2.9760606      2.6268185      0              7.0887296      48.360691    
     16900   2.9929898      2.643235       0              7.1305276      48.741977    
     17000   3.0690664      2.6477419      0              7.2490937      48.832821    
     17100   3.0768575      2.7640182      0              7.3770509      50.339841    
     17200   3.0822452      2.7146074      0              7.3357177      50.033053    
     17300   3.0157419      2.5865038      0              7.1079078      48.281291    
     17400   3.0081979      2.5590676      0              7.0691612      47.886963    
     17500   2.9947046      2.6452329      0              7.1350964      49.097855    
     17600   3.0772153      2.6581638      0              7.271733       49.339219    
     17700   3.1030461      2.6644174      0              7.3167138      49.53502     
     17800   2.9503639      2.6764916      0              7.0998766      49.082432    
     17900   2.9241046      2.6226664      0              7.0066816      48.522957    
     18000   3.048485       2.5357175      0              7.1062122      47.585727    
     18100   3.0333716      2.6856431      0              7.2334789      49.470357    
     18200   3.0353992      2.6893491      0              7.2402247      49.330833    
     18300   3.0500582      2.5917463      0              7.1645998      48.383083    
     18400   2.8472556      2.6429569      0              6.911755       48.81028     
     18500   2.9092344      2.5795976      0              6.9413185      48.053029    
     18600   3.0091614      2.5703893      0              7.0819274      48.133669    
     18700   3.0068912      2.6912808      0              7.1994153      49.669284    
     18800   2.9697813      2.791804       0              7.2443008      50.496572    
     18900   2.9654789      2.7360353      0              7.1820817      49.829563    
     19000   2.9068325      2.6151274      0              6.9732472      48.283797    
     19100   3.0193786      2.461873       0              6.9887295      46.876208    
     19200   2.9360629      2.7065951      0              7.108539       49.488072    
     19300   3.0072481      2.6571769      0              7.1658464      49.383673    
     19400   2.9792701      2.7111993      0              7.1779223      49.804142    
     19500   2.9528218      2.7355097      0              7.1625797      49.89531     
     19600   3.0281596      2.5110662      0              7.0510877      47.456481    
     19700   2.9997029      2.439197       0              6.9365543      46.395948    
     19800   2.9579398      2.6359107      0              7.0706539      48.749207    
     19900   2.9927893      2.7131246      0              7.2001166      49.887462    
     20000   3.0309421      2.6590799      0              7.2032731      49.308138    
     20100   3.0192423      2.6133522      0              7.1400044      48.337662    
     20200   2.972115       2.5375755      0              6.9935712      47.562675    
     20300   2.9156471      2.5437992      0              6.9151343      47.468407    
     20400   3.0378093      2.5755327      0              7.1300217      47.963837    
     20500   3.0323034      2.7016767      0              7.2479109      49.597956    
     20600   3.0069051      2.7094712      0              7.2176265      49.516325    
     20700   2.9376011      2.6806616      0              7.0849117      49.322446    
     20800   2.9400507      2.643663       0              7.0515856      48.608951    
     20900   3.0000546      2.692823       0              7.1907076      49.371845    
     21000   3.1013208      2.7036438      0              7.3533535      49.528212    
     21100   3.0424697      2.7036023      0              7.2650785      49.615989    
     21200   3.0171076      2.6242964      0              7.1477481      48.605236    
     21300   2.9992363      2.6094293      0              7.1060871      48.321064    
     21400   3.0562182      2.5422056      0              7.1242944      48.020558    
     21500   3.0400671      2.6519564      0              7.2098304      48.949009    
     21600   3.1510954      2.7076214      0              7.4319566      49.90284     
     21700   3.1121413      2.712287       0              7.3782196      49.794479    
     21800   3.0240166      2.6746994      0              7.2085095      49.398435    
     21900   3.0043586      2.6303761      0              7.1347135      48.832255    
     22000   3.055795       2.515225       0              7.0966794      47.443343    
     22100   3.0004073      2.6384536      0              7.136867       48.829789    
     22200   3.0562225      2.7297034      0              7.3117987      50.203036    
     22300   3.0258947      2.7951305      0              7.3317563      50.884876    
     22400   2.9743309      2.6967164      0              7.1560343      49.718501    
     22500   2.9454193      2.6780934      0              7.0940651      49.387361    
     22600   3.0106766      2.6216041      0              7.1354139      48.86353     
     22700   3.1078007      2.5585195      0              7.2179443      48.106328    
     22800   3.049501       2.6986134      0              7.2706314      49.946531    
     22900   3.071097       2.6098364      0              7.2142325      48.836115    
     23000   2.9478706      2.6162947      0              7.0359416      48.857802    
     23100   2.9040022      2.6863585      0              7.0402348      49.434077    
     23200   3.0426475      2.6302455      0              7.1919883      48.952758    
     23300   2.980137       2.7967949      0              7.2648177      50.752356    
     23400   3.0424013      2.6619795      0              7.2233531      48.995819    
     23500   3.0046769      2.6681639      0              7.1729785      49.231775    
     23600   2.9594365      2.6986097      0              7.1355968      49.297116    
     23700   2.9891272      2.6480032      0              7.1295046      48.91549     
     23800   2.9953482      2.6801189      0              7.1709472      49.233335    
     23900   3.0335792      2.7183901      0              7.266537       49.388996    
     24000   3.0636138      2.6667703      0              7.2599472      49.339487    
     24100   2.9653379      2.6572239      0              7.1030589      49.133165    
     24200   2.9172079      2.655596       0              7.0292712      49.009745    
     24300   2.9936938      2.6185422      0              7.1068902      48.93263     
     24400   3.1183869      2.628014       0              7.3033103      48.880552    
     24500   3.0661523      2.7059377      0              7.3029204      49.760702    
     24600   3.0072338      2.6949898      0              7.2036379      49.544315    
     24700   2.9835115      2.6194845      0              7.0925666      48.449721    
     24800   2.9012132      2.7107142      0              7.0604092      49.335265    
     24900   2.9757538      2.7085599      0              7.1700111      49.926934    
     25000   3.0829092      2.725878       0              7.3479838      50.063403    
     25100   2.9936523      2.7784188      0              7.2667046      50.740923    
     25200   2.9582672      2.7165238      0              7.151758       49.524368    
     25300   2.9604601      2.675071       0              7.1135928      49.197979    
     25400   3.0059878      2.6232553      0              7.1300354      48.866293    
     25500   2.9887977      2.7086984      0              7.1897059      49.713438    
     25600   3.0816617      2.7624213      0              7.3826568      50.810935    
     25700   3.1143826      2.7345233      0              7.4038162      49.955323    
     25800   3.0018837      2.7018787      0              7.2025057      49.716063    
     25900   3.0034558      2.649653       0              7.1526369      48.926853    
     26000   2.9075534      2.741771       0              7.1009716      50.016058    
     26100   2.9283958      2.7056108      0              7.0960597      49.435135    
     26200   3.0052053      2.6845191      0              7.1901259      49.555984    
     26300   3.1100266      2.6592755      0              7.3220375      49.426046    
     26400   2.9874889      2.7786534      0              7.2576985      50.327364    
     26500   2.9471538      2.6365067      0              7.0550788      48.917402    
     26600   2.9595575      2.6207257      0              7.0578943      48.331959    
     26700   3.0137111      2.6306381      0              7.1489973      48.874505    
     26800   3.069011       2.6280149      0              7.2292836      48.767867    
     26900   3.013285       2.7053545      0              7.223075       49.885236    
     27000   2.879755       2.693392       0              7.0109154      49.188694    
     27100   2.9631115      2.5357162      0              6.9782133      47.826996    
     27200   2.9700843      2.6749724      0              7.1279234      49.17644     
     27300   2.9967539      2.725657       0              7.2185931      49.807692    
     27400   3.0106362      2.6843451      0              7.1980944      49.547474    
     27500   3.016124       2.6342632      0              7.1562401      48.934706    
     27600   2.9393671      2.6233051      0              7.0302028      48.772371    
     27700   2.9101923      2.5221415      0              6.8852985      47.531631    
     27800   2.9700569      2.5728667      0              7.0257767      47.438665    
     27900   2.9958014      2.6687343      0              7.1602422      49.069792    
     28000   2.9486723      2.7757155      0              7.1965642      50.236046    
     28100   2.9813417      2.7206176      0              7.1904466      49.83053     
     28200   2.950924       2.6535445      0              7.0777692      48.843521    
     28300   2.9842408      2.4984044      0              6.97258        47.043662    
     28400   2.9533237      2.6420297      0              7.0698522      48.598807    
     28500   2.9341179      2.8620538      0              7.2610816      51.370412    
     28600   3.0088883      2.7402835      0              7.2514121      49.810786    
     28700   2.9547973      2.6910625      0              7.1210942      49.507333    
     28800   2.9087636      2.6843729      0              7.0453878      49.336592    
     28900   2.9756597      2.6367709      0              7.0980811      48.584227    
     29000   3.0956901      2.7160864      0              7.3573543      50.220752    
     29100   3.1169186      2.6847189      0              7.3578139      49.755232    
     29200   2.9989657      2.6988149      0              7.1950669      49.694662    
     29300   2.8964988      2.7526731      0              7.0952999      50.084251    
     29400   2.9603584      2.6583381      0              7.0967074      49.191112    
     29500   3.0008925      2.7297996      0              7.2289404      50.076517    
     29600   3.0539652      2.7929879      0              7.3716989      50.351331    
     29700   3.0258243      2.7150862      0              7.2516065      49.970974    
     29800   2.9074669      2.6936972      0              7.052768       49.299739    
     29900   2.9447384      2.6840059      0              7.0989567      48.93661     
     30000   2.9883092      2.7304926      0              7.2107677      49.705105    
     30100   3.0079914      2.7539321      0              7.263716       50.163969    
     30200   3.0040669      2.6495078      0              7.1534079      49.294736    
     30300   2.9195196      2.6114876      0              6.9886286      48.44058     
     30400   2.9597172      2.6088729      0              7.046281       48.701803    
     30500   3.0032856      2.6586104      0              7.161339       49.240645    
     30600   2.995221       2.69752        0              7.1881577      49.629811    
     30700   3.072084       2.5654705      0              7.1713464      48.474085    
     30800   2.9604562      2.6999503      0              7.1384663      49.214129    
     30900   2.9434851      2.5868576      0              6.9999293      48.022959    
     31000   2.8843185      2.6322009      0              6.9565662      48.700983    
     31100   2.9741294      2.6865044      0              7.1455201      49.408943    
     31200   3.0417061      2.6618958      0              7.2222272      49.342215    
     31300   3.0780191      2.5909761      0              7.2057503      48.375355    
     31400   3.0402105      2.5603824      0              7.1184714      47.620648    
     31500   2.8929201      2.6031876      0              6.9404489      48.218151    
     31600   2.9774581      2.5467334      0              7.0107398      48.029206    
     31700   3.0011899      2.6698344      0              7.1694212      49.371559    
     31800   3.0560553      2.6062965      0              7.1881411      48.564825    
     31900   2.989952       2.6789865      0              7.1617247      49.264888    
     32000   2.9641086      2.6567722      0              7.1007641      48.812619    
     32100   2.9484927      2.6201077      0              7.0406873      48.585411    
     32200   2.9438433      2.6815465      0              7.0951552      49.480581    
     32300   3.0871575      2.6430714      0              7.2715466      49.148277    
     32400   3.0239365      2.7605987      0              7.2942886      50.322308    
     32500   3.0039037      2.6537233      0              7.1573788      49.002383    
     32600   3.0002598      2.5554791      0              7.0536713      47.893059    
     32700   2.9547369      2.6603019      0              7.0902431      49.046837    
     32800   3.0204463      2.6366413      0              7.1650985      48.765175    
     32900   3.0282876      2.6988646      0              7.239078       49.574412    
     33000   3.082568       2.6253452      0              7.2469394      48.581986    
     33100   3.0400751      2.5309982      0              7.0888842      47.536144    
     33200   2.9516899      2.5690343      0              6.9944072      48.133933    
     33300   2.9748501      2.6322267      0              7.0923229      48.988489    
     33400   3.069592       2.6398539      0              7.2419938      48.741787    
     33500   2.9985061      2.7280724      0              7.2236354      50.044632    
     33600   3.0265532      2.6275551      0              7.1651681      48.902508    
     33700   2.993121       2.6171331      0              7.1046224      48.632897    
     33800   2.9491649      2.6574722      0              7.0790595      48.660509    
     33900   2.9960759      2.6324674      0              7.124387       48.756891    
     34000   3.096206       2.5986058      0              7.2406471      48.52498     
     34100   3.1191997      2.6013826      0              7.2778976      48.884734    
     34200   2.9892777      2.6871268      0              7.1688539      49.2484      
     34300   2.9595074      2.5863717      0              7.0234652      48.119633    
     34400   2.9079706      2.6819824      0              7.0418085      49.457223    
     34500   2.981028       2.6769279      0              7.1462865      49.221789    
     34600   3.0142368      2.6542149      0              7.1733624      48.809473    
     34700   3.0070007      2.6409238      0              7.1492225      48.885867    
     34800   2.9709779      2.6596126      0              7.1139034      49.222167    
     34900   2.9539384      2.6777912      0              7.1065352      49.356718    
     35000   3.0474533      2.62798        0              7.1969279      48.573957    
     35100   3.0690242      2.684318       0              7.2856065      49.433258    
     35200   2.9919427      2.7404745      0              7.2261972      49.895409    
     35300   2.9440547      2.623477       0              7.0374028      48.655633    
     35400   2.9913038      2.5479176      0              7.0326824      47.563372    
     35500   3.0114117      2.6159827      0              7.1308946      48.426035    
     35600   3.0582141      2.5886205      0              7.1737017      48.383483    
     35700   3.0030472      2.6750689      0              7.1774403      49.095849    
     35800   3.037037       2.6082343      0              7.1615654      48.68083     
     35900   2.9601653      2.682285       0              7.1203649      49.308453    
     36000   2.9546363      2.6072659      0              7.0370564      48.209058    
     36100   2.9295899      2.6562637      0              7.0485029      48.680393    
     36200   2.9874567      2.7172437      0              7.1962407      49.965857    
     36300   3.0652473      2.6957043      0              7.2913301      49.184954    
     36400   2.9809313      2.7332833      0              7.202497       50.074535    
     36500   2.9370672      2.6730969      0              7.0765465      49.151817    
     36600   2.8980479      2.7253994      0              7.0703487      49.487104    
     36700   2.9971415      2.6220401      0              7.1155571      48.511884    
     36800   3.0073888      2.6865603      0              7.1954408      49.339524    
     36900   3.0615785      2.6511638      0              7.2412892      49.06512     
     37000   3.0253577      2.6444381      0              7.1802587      49.23352     
     37100   2.9684121      2.5598178      0              7.0102619      47.852809    
     37200   2.9195938      2.6287033      0              7.0059556      48.670956    
     37300   2.9461138      2.7597513      0              7.1767642      50.574391    
     37400   3.1067747      2.5897098      0              7.2475964      48.254816    
     37500   3.075209       2.5852725      0              7.1958336      48.245638    
     37600   3.058268       2.5231035      0              7.1082656      47.512015    
     37700   3.0073514      2.5546335      0              7.063458       47.530257    
     37800   3.0017536      2.6079297      0              7.1083616      48.498434    
     37900   3.0529824      2.6877046      0              7.2649422      49.31803     
     38000   3.1011422      2.6399534      0              7.2893953      48.948573    
     38100   3.1148164      2.4685817      0              7.1385249      47.04038     
     38200   2.9759391      2.5818429      0              7.043572       48.326343    
     38300   3.0250907      2.5567369      0              7.0921573      48.145708    
     38400   3.0012464      2.6553056      0              7.154977       48.832363    
     38500   3.0097017      2.6632494      0              7.1755976      49.314783    
     38600   2.9829043      2.6963606      0              7.1685324      49.634807    
     38700   3.0487064      2.5861742      0              7.1570008      48.34566     
     38800   2.8794563      2.7308328      0              7.0479082      50.107133    
     38900   2.9058807      2.5837869      0              6.9404795      47.627438    
     39000   2.9763479      2.5905993      0              7.0529411      48.190642    
     39100   2.9825802      2.7378486      0              7.2095344      49.875128    
     39200   2.960823       2.7867704      0              7.2258364      50.621086    
     39300   3.0324984      2.6105905      0              7.1571171      48.573709    
     39400   2.8774084      2.6664453      0              6.9804504      48.964853    
     39500   2.927419       2.5284845      0              6.9174689      47.414571    
     39600   2.9917859      2.6973885      0              7.1828761      49.765214    
     39700   3.059534       2.6506525      0              7.2377126      49.051433    
     39800   3.0933001      2.539081       0              7.1767655      48.148772    
     39900   2.9690248      2.6211817      0              7.0725443      48.732158    
     40000   2.8656862      2.7528457      0              7.0492761      50.127964    
     40100   2.9666362      2.7457469      0              7.1935284      49.987899    
     40200   3.0888286      2.6911075      0              7.3220881      49.550943    
     40300   3.0130784      2.7317713      0              7.249182       49.692556    
     40400   2.9448754      2.7306328      0              7.145789       49.867982    
     40500   2.9805422      2.6623596      0              7.1309899      49.215255    
     40600   2.9771766      2.6754716      0              7.1390558      49.294517    
     40700   3.0000601      2.6810145      0              7.1789074      49.417314    
     40800   3.0552406      2.7347567      0              7.31538        50.033498    
     40900   3.0309318      2.7963417      0              7.3405195      50.564368    
     41000   2.9966282      2.6453526      0              7.1381001      48.978134    
     41100   2.9303669      2.670118       0              7.0635222      49.318723    
     41200   2.963813       2.6846866      0              7.1282353      49.289244    
     41300   3.0694827      2.639183       0              7.2411589      48.857732    
     41400   3.0554814      2.6876074      0              7.2685915      49.916206    
     41500   2.9375157      2.6603066      0              7.0644287      49.262191    
     41600   2.9471024      2.5623543      0              6.9808493      47.656075    
     41700   3.0241865      2.5692717      0              7.1033364      48.031156    
     41800   3.0285554      2.6826136      0              7.2232285      49.616594    
     41900   2.943627       2.809932       0              7.2232165      50.843149    
     42000   2.9545158      2.7054583      0              7.1350681      49.243       
     42100   2.9081978      2.5604936      0              6.9206604      47.785436    
     42200   2.9399278      2.511296       0              6.9190343      47.016334    
     42300   2.9615811      2.5821407      0              7.0223433      47.699911    
     42400   3.0107638      2.6297312      0              7.1436717      48.751775    
     42500   3.0721775      2.6362803      0              7.2422964      49.154947    
     42600   3.0018741      2.7364108      0              7.2370234      50.024083    
     42700   2.9845762      2.5932752      0              7.0679536      48.110291    
     42800   2.9598885      2.5388869      0              6.9765518      47.722255    
     42900   2.9689279      2.6214686      0              7.0726858      48.467416    
     43000   3.0189429      2.6165396      0              7.1427428      48.601891    
     43100   2.9793803      2.7111295      0              7.1780178      49.631903    
     43200   2.9296964      2.7850452      0              7.1774441      50.443868    
     43300   3.0096922      2.5961082      0              7.108442       48.393215    
     43400   2.9486932      2.5541731      0              6.9750533      47.650842    
     43500   2.9863146      2.5398851      0              7.0171697      47.831963    
     43600   3.0081544      2.7036781      0              7.2137065      49.532992    
     43700   3.0163552      2.7112499      0              7.2335735      49.908499    
     43800   2.968841       2.7103628      0              7.1614498      49.315517    
     43900   3.0003812      2.5751512      0              7.0735255      48.023735    
     44000   2.8483554      2.686952       0              6.957399       49.192938    
     44100   2.9327036      2.5304318      0              6.9273392      47.514554    
     44200   3.0166705      2.615401       0              7.1381972      48.499141    
     44300   3.1071033      2.5797208      0              7.2381         48.395421    
     44400   3.0184765      2.6844265      0              7.2099304      49.355563    
     44500   2.9904001      2.6051388      0              7.0885488      48.533358    
     44600   2.9874615      2.5173496      0              6.9963538      47.257662    
     44700   2.9499366      2.6822907      0              7.1050351      49.528623    
     44800   3.0297702      2.7611604      0              7.3035967      50.324404    
     44900   2.9867961      2.7815207      0              7.2595273      50.774541    
     45000   3.0195747      2.5919295      0              7.1190799      48.351233    
     45100   2.9801409      2.5776796      0              7.0457082      48.461929    
     45200   3.0496236      2.5279883      0              7.1001902      47.46466     
     45300   3.022427       2.6253066      0              7.1567334      48.695278    
     45400   3.0579621      2.586464       0              7.1711674      48.368111    
     45500   3.0814669      2.5385867      0              7.1585301      47.905228    
     45600   2.9579525      2.6935764      0              7.1283386      49.282249    
     45700   3.0091698      2.5658701      0              7.0774209      48.052963    
     45800   3.0016056      2.5443028      0              7.0445128      47.868005    
     45900   3.0611937      2.5664886      0              7.1560371      48.330559    
     46000   3.0381497      2.7336524      0              7.2886517      50.027967    
     46100   3.0668983      2.658913       0              7.2570141      49.0566      
     46200   2.9365076      2.6860065      0              7.0886171      49.246238    
     46300   2.9359095      2.6206765      0              7.0223904      48.461738    
     46400   2.971712       2.6235438      0              7.0789353      48.661789    
     46500   3.0239567      2.6281364      0              7.1618566      48.65826     
     46600   3.0082968      2.718423       0              7.2286649      49.480555    
     46700   2.9758702      2.7495521      0              7.2111777      50.298321    
     46800   2.9748826      2.5742721      0              7.0344171      48.143797    
     46900   2.9893976      2.5014437      0              6.9833506      47.270048    
     47000   3.0045418      2.6152713      0              7.1198834      48.645151    
     47100   3.0714028      2.6293247      0              7.2341793      48.961724    
     47200   3.034563       2.6583119      0              7.2079339      48.998589    
     47300   3.0375912      2.5911869      0              7.1453489      48.226011    
     47400   2.9500385      2.6190696      0              7.0419667      48.897571    
     47500   2.9035849      2.6073802      0              6.9606309      48.173299    
     47600   2.9095525      2.6833873      0              7.045585       49.163966    
     47700   3.0332829      2.6800106      0              7.2277133      49.453551    
     47800   3.0390431      2.6937919      0              7.2501307      49.872283    
     47900   2.9947473      2.6590943      0              7.1490218      48.960072    
     48000   2.9183028      2.6345987      0              7.0099154      48.887959    
     48100   2.937087       2.6461429      0              7.0496221      48.942258    
     48200   2.9998197      2.8179363      0              7.3154687      50.661939    
     48300   3.0356858      2.726023       0              7.2773282      49.989429    
     48400   3.0347954      2.5819149      0              7.1318852      48.102845    
     48500   2.9661042      2.6086122      0              7.0555961      48.58659     
     48600   2.9597913      2.6615755      0              7.0990947      49.121202    
     48700   3.0443411      2.7418111      0              7.306093       49.97095     
     48800   3.0552909      2.7456604      0              7.3263589      50.158208    
     48900   3.0525731      2.6488194      0              7.2254432      49.058112    
     49000   2.9278343      2.7529511      0              7.1425582      50.308045    
     49100   3.0188447      2.592423       0              7.118479       48.379443    
     49200   2.9990875      2.6477713      0              7.1442059      48.885386    
     49300   3.0216016      2.737502       0              7.2676913      50.059187    
     49400   3.0688334      2.7400793      0              7.3410817      49.958982    
     49500   3.0104715      2.6746245      0              7.1881269      49.227668    
     49600   2.97393        2.6045208      0              7.0632377      48.302063    
     49700   2.9150481      2.7161598      0              7.0865968      49.665475    
     49800   3.0137157      2.6651886      0              7.1835548      49.279604    
     49900   3.0569534      2.7065251      0              7.2897161      49.877001    
     50000   3.0776285      2.7576569      0              7.3718455      50.032071    
Loop time of 12.7648 on 1 procs for 50000 steps with 2048 atoms

Performance: 676858.745 tau/day, 3917.007 timesteps/s, 8.022 Matom-step/s
99.7% CPU use with 1 MPI tasks x 1 OpenMP threads

MPI task timing breakdown:
Section |  min time  |  avg time  |  max time  |%varavg| %total
---------------------------------------------------------------
Pair    | 7.0586     | 7.0586     | 7.0586     |   0.0 | 55.30
Neigh   | 3.679      | 3.679      | 3.679      |   0.0 | 28.82
Comm    | 0.44072    | 0.44072    | 0.44072    |   0.0 |  3.45
Output  | 0.0068386  | 0.0068386  | 0.0068386  |   0.0 |  0.05
Modify  | 1.2638     | 1.2638     | 1.2638     |   0.0 |  9.90
Other   |            | 0.3159     |            |       |  2.47

Nlocal:           2048 ave        2048 max        2048 min
Histogram: 1 0 0 0 0 0 0 0 0 0
Nghost:           1389 ave        1389 max        1389 min
Histogram: 1 0 0 0 0 0 0 0 0 0
Neighs:          12539 ave       12539 max       12539 min
Histogram: 1 0 0 0 0 0 0 0 0 0

Total # of neighbors = 12539
Ave neighs/atom = 6.1225586
Neighbor list builds = 4592
Dangerous builds = 0

unfix 1
dump           1 all atom ${run_steps} 3dWCA_T${final_temperature}_d${density}_N${run_steps}.lammpstrj
dump           1 all atom 100000 3dWCA_T${final_temperature}_d${density}_N${run_steps}.lammpstrj
dump           1 all atom 100000 3dWCA_T0.1_d${density}_N${run_steps}.lammpstrj
dump           1 all atom 100000 3dWCA_T0.1_d1.3_N${run_steps}.lammpstrj
dump           1 all atom 100000 3dWCA_T0.1_d1.3_N100000.lammpstrj
dump           2 all dcd ${thermo_time} 3dWCA_T${final_temperature}_d${density}_N${run_steps}.dcd
dump           2 all dcd 100 3dWCA_T${final_temperature}_d${density}_N${run_steps}.dcd
dump           2 all dcd 100 3dWCA_T0.1_d${density}_N${run_steps}.dcd
dump           2 all dcd 100 3dWCA_T0.1_d1.3_N${run_steps}.dcd
dump           2 all dcd 100 3dWCA_T0.1_d1.3_N100000.dcd
fix 1 all nvt temp ${initial_temperature} ${final_temperature} ${tau}
fix 1 all nvt temp 3 ${final_temperature} ${tau}
fix 1 all nvt temp 3 0.1 ${tau}
fix 1 all nvt temp 3 0.1 0.2

run ${run_steps}
run 100000
Generated 0 of 0 mixed pair_coeff terms from geometric mixing rule
Per MPI rank memory allocation (min/avg/max) = 3.297 | 3.297 | 3.297 Mbytes
   Step          Temp          E_pair         E_mol          TotEng         Press     
     50000   3.0776285      2.7576569      0              7.3718455      50.032071    
     50100   2.9800636      2.7813884      0              7.2493012      50.63226     
     50200   2.9962237      2.6201489      0              7.1122899      48.62171     
     50300   3.0524603      2.5244862      0              7.1009409      47.714708    
     50400   2.9516641      2.6985846      0              7.1239189      49.27128     
     50500   2.9871409      2.7016472      0              7.1801707      49.688208    
     50600   3.0155831      2.7349018      0              7.2560677      49.934466    
     50700   3.0457537      2.658342       0              7.2247417      48.807513    
     50800   3.0286381      2.4999128      0              7.0406517      47.352093    
     50900   2.8923808      2.6483045      0              6.9847572      49.072096    
     51000   2.9964241      2.5775725      0              7.0700141      47.992585    
     51100   2.9568899      2.7425969      0              7.175766       49.923874    
     51200   3.0506781      2.6727084      0              7.2464912      49.247634    
     51300   3.1213477      2.5464157      0              7.226151       47.594203    
     51400   2.9117211      2.6654106      0              7.0308596      49.27549     
     51500   2.9060725      2.6000402      0              6.9570206      48.351392    
     51600   2.9651005      2.560725       0              7.0062041      47.706072    
     51700   2.9872863      2.6703517      0              7.1490932      49.237936    
     51800   3.0129371      2.6794019      0              7.1966008      49.435314    
     51900   2.9824327      2.4928255      0              6.9642902      46.912796    
     52000   2.8306128      2.6542403      0              6.8980863      48.657715    
     52100   2.975532       2.5138361      0              6.9749548      47.28676     
     52200   2.9431521      2.6773901      0              7.0899627      49.369331    
     52300   2.9516076      2.676838       0              7.1020876      49.203541    
     52400   2.879819       2.5721982      0              6.8898175      47.659914    
     52500   2.8805604      2.4953395      0              6.8140703      47.226866    
     52600   2.8959215      2.5781357      0              6.9198969      48.196638    
     52700   2.9251915      2.6423078      0              7.0279526      48.935043    
     52800   2.9611069      2.585927       0              7.0254186      48.384999    
     52900   2.9349804      2.5222248      0              6.9225458      47.851141    
     53000   2.8006147      2.5047049      0              6.7035756      47.299181    
     53100   2.8314317      2.4858815      0              6.7309553      46.724474    
     53200   2.8752413      2.53501        0              6.8457661      47.348455    
     53300   2.915077       2.5896145      0              6.9600949      48.288013    
     53400   2.9512107      2.5747727      0              6.9994272      48.022687    
     53500   2.9181136      2.537266       0              6.9122991      47.347565    
     53600   2.80855        2.51832        0              6.7290879      47.060159    
     53700   2.8727509      2.4454119      0              6.7524341      46.074261    
     53800   2.9116271      2.4767703      0              6.8420784      47.047403    
     53900   2.8779795      2.5769934      0              6.8918548      48.223595    
     54000   2.8584019      2.6197985      0              6.9053078      48.441007    
     54100   2.8674556      2.5663243      0              6.8654075      47.854907    
     54200   2.7938396      2.4998894      0              6.6886025      47.208575    
     54300   2.8100689      2.4743896      0              6.6874348      46.669856    
     54400   2.8619595      2.5647908      0              6.8556338      47.555089    
     54500   2.9370644      2.5008102      0              6.9042557      46.83636     
     54600   2.8619831      2.5676711      0              6.8585495      47.643411    
     54700   2.8672758      2.483802       0              6.7826156      46.902968    
     54800   2.7938388      2.4614183      0              6.6501301      46.59891     
     54900   2.7582497      2.4025435      0              6.5378979      45.855737    
     55000   2.8075941      2.4884115      0              6.6977464      46.941132    
     55100   2.8745539      2.5303151      0              6.8400405      47.087103    
     55200   2.9053215      2.4976799      0              6.8535343      47.096686    
     55300   2.8227571      2.5538765      0              6.7859446      47.862506    
     55400   2.8604495      2.3804472      0              6.6690263      45.675323    
     55500   2.7734226      2.4488572      0              6.6069598      46.187434    
     55600   2.8501063      2.5140096      0              6.7870815      47.396582    
     55700   2.9009903      2.5506706      0              6.9000313      47.345098    
     55800   2.8820805      2.4837784      0              6.8047882      47.292803    
     55900   2.8173674      2.464449       0              6.6884366      46.534854    
     56000   2.8245496      2.4378245      0              6.6725801      46.314924    
     56100   2.806392       2.4936198      0              6.7011523      47.009968    
     56200   2.8052551      2.5463541      0              6.7521821      47.562133    
     56300   2.8979837      2.4602289      0              6.8050819      46.696057    
     56400   2.8614208      2.5567534      0              6.8467888      47.684457    
     56500   2.8400768      2.4579609      0              6.7159959      46.736548    
     56600   2.7720433      2.4391244      0              6.595159       46.223796    
     56700   2.7943488      2.4100042      0              6.5994808      46.047118    
     56800   2.8211804      2.4985748      0              6.7282792      47.475079    
     56900   2.8602311      2.5434021      0              6.8316539      47.163574    
     57000   2.8430451      2.447514       0              6.7099994      46.46182     
     57100   2.8101622      2.3775508      0              6.5907359      45.426387    
     57200   2.8271767      2.3629864      0              6.6016808      45.596432    
     57300   2.7572257      2.5290073      0              6.6628265      47.628638    
     57400   2.7940029      2.5211063      0              6.7100642      47.048343    
     57500   2.7918368      2.4918539      0              6.6775644      46.854761    
     57600   2.7177534      2.4297386      0              6.5043782      46.212655    
     57700   2.7543585      2.3620147      0              6.4915352      44.930612    
     57800   2.7917186      2.4125684      0              6.5981016      45.953045    
     57900   2.8205759      2.4686739      0              6.6974718      46.791594    
     58000   2.7911679      2.4904981      0              6.6752057      47.029437    
     58100   2.75368        2.4838122      0              6.6123154      46.604804    
     58200   2.802189       2.3351671      0              6.5363982      44.877998    
     58300   2.6944535      2.4305536      0              6.4702604      46.033482    
     58400   2.7368383      2.3861781      0              6.4894309      45.635423    
     58500   2.8523025      2.3805538      0              6.6569184      45.706596    
     58600   2.7992728      2.4954641      0              6.6923231      47.020043    
     58700   2.7377463      2.4587556      0              6.5633699      46.435825    
     58800   2.7065733      2.3973705      0              6.4552481      45.757098    
     58900   2.7101785      2.4173663      0              6.4806491      45.574244    
     59000   2.7549142      2.3985461      0              6.5288997      45.48138     
     59100   2.736102       2.4589537      0              6.5611027      46.407582    
     59200   2.6815914      2.5233345      0              6.5437575      47.237387    
     59300   2.7265426      2.3590531      0              6.44687        44.964105    
     59400   2.6528817      2.3864511      0              6.3638305      45.412719    
     59500   2.644614       2.4616646      0              6.4266486      46.572361    
     59600   2.7415174      2.4706878      0              6.5809559      46.771014    
     59700   2.7657886      2.4297976      0              6.5764548      46.474057    
     59800   2.708021       2.4339562      0              6.4940042      45.999331    
     59900   2.729067       2.3590011      0              6.4506028      45.386839    
     60000   2.7252203      2.3405374      0              6.4263717      44.869646    
     60100   2.7338352      2.3104554      0              6.4092059      44.663266    
     60200   2.6690476      2.3813795      0              6.382996       45.370377    
     60300   2.6395719      2.4168582      0              6.3742827      45.6789      
     60400   2.7291788      2.3340379      0              6.4258072      44.782245    
     60500   2.6946343      2.4554721      0              6.4954499      46.256763    
     60600   2.7132708      2.4149395      0              6.4828584      45.472534    
     60700   2.712529       2.2524784      0              6.3192852      43.779808    
     60800   2.6757689      2.2525186      0              6.2642122      43.651168    
     60900   2.6245356      2.4020755      0              6.3369566      45.7839      
     61000   2.7712993      2.2631726      0              6.4180918      44.190657    
     61100   2.7198127      2.337503       0              6.41523        44.809166    
     61200   2.7014362      2.3193861      0              6.3695618      44.726325    
     61300   2.709098       2.2559005      0              6.3175632      43.78135     
     61400   2.6333749      2.3108057      0              6.2589393      44.463084    
     61500   2.5640554      2.3199893      0              6.1641945      44.367007    
     61600   2.6332857      2.2816456      0              6.2296454      44.105342    
     61700   2.6709427      2.3767441      0              6.3812019      45.242933    
     61800   2.691191       2.3659129      0              6.4007283      45.250362    
     61900   2.6481075      2.35754        0              6.3277618      44.772395    
     62000   2.6086129      2.264673       0              6.1756817      43.948124    
     62100   2.5870185      2.2779071      0              6.15654        44.492328    
     62200   2.6244408      2.2771089      0              6.211848       43.696022    
     62300   2.589527       2.3855803      0              6.2679742      45.525899    
     62400   2.646111       2.3804656      0              6.3476941      45.333861    
     62500   2.6877117      2.3165654      0              6.3461644      44.709638    
     62600   2.5912254      2.2952572      0              6.1801974      44.230765    
     62700   2.5674531      2.2755633      0              6.1248624      43.995732    
     62800   2.5911733      2.3096855      0              6.1945476      44.56263     
     62900   2.644187       2.3037401      0              6.268084       44.026258    
     63000   2.6333091      2.3233212      0              6.2713561      44.707843    
     63100   2.6166956      2.3220621      0              6.245189       44.365103    
     63200   2.5924699      2.3155982      0              6.2024043      44.165335    
     63300   2.592703       2.3081178      0              6.1952733      44.14793     
     63400   2.6497462      2.3190185      0              6.291697       44.735609    
     63500   2.7256246      2.330709       0              6.4171496      45.024613    
     63600   2.6190693      2.371816       0              6.2985017      45.310066    
     63700   2.5812925      2.2935843      0              6.1636324      44.484841    
     63800   2.5797563      2.2594061      0              6.1271511      43.720954    
     63900   2.5333581      2.3377988      0              6.1359805      44.599445    
     64000   2.6622557      2.2484792      0              6.2399129      43.715142    
     64100   2.6242803      2.4008939      0              6.3353922      45.368102    
     64200   2.558366       2.3670097      0              6.2026849      44.977435    
     64300   2.5726824      2.2266563      0              6.0837957      43.253095    
     64400   2.6093972      2.1880866      0              6.1002712      42.684374    
     64500   2.59032        2.2667145      0              6.1502973      43.788677    
     64600   2.5824061      2.3387401      0              6.210458       44.716081    
     64700   2.6536993      2.2387367      0              6.217342       43.486633    
     64800   2.5574172      2.2336572      0              6.0679099      43.457528    
     64900   2.4832581      2.2655303      0              5.9885987      43.464487    
     65000   2.5580274      2.2081312      0              6.0432987      43.251233    
     65100   2.5804752      2.29845        0              6.1672728      44.487674    
     65200   2.6061017      2.3369598      0              6.2442035      44.731832    
     65300   2.5730383      2.2055511      0              6.0632241      43.244019    
     65400   2.4706529      2.2433575      0              5.9475273      43.449918    
     65500   2.5370551      2.1763375      0              5.9800619      42.825122    
     65600   2.5735299      2.2425772      0              6.1009871      43.659546    
     65700   2.6129792      2.2298953      0              6.1474503      43.523512    
     65800   2.5487243      2.2011832      0              6.0224029      43.089707    
     65900   2.5113212      2.1458854      0              5.9110279      42.021394    
     66000   2.4743621      2.2323541      0              5.942085       43.491733    
     66100   2.5032087      2.2682253      0              6.021205       43.828769    
     66200   2.5827546      2.2007627      0              6.0730029      42.794222    
     66300   2.5574278      2.2092227      0              6.0434913      43.282762    
     66400   2.5144526      2.0935362      0              5.8633735      41.546997    
     66500   2.4114956      2.2375237      0              5.8530009      43.517441    
     66600   2.5459301      2.1664666      0              5.983497       42.699143    
     66700   2.5421499      2.2353039      0              6.0466668      43.06069     
     66800   2.5537022      2.1690165      0              5.9976995      42.747526    
     66900   2.4673848      2.2461325      0              5.9454025      43.385625    
     67000   2.4933996      2.1848513      0              5.9231246      42.902782    
     67100   2.5279773      2.1362864      0              5.9264007      42.19389     
     67200   2.5256797      2.1511621      0              5.9378318      42.643615    
     67300   2.5141807      2.1621699      0              5.9315995      42.849471    
     67400   2.4507031      2.2001018      0              5.8743615      42.762934    
     67500   2.478309       2.0756632      0              5.7913115      41.31088     
     67600   2.4111775      2.2047135      0              5.8197138      42.660094    
     67700   2.4833836      2.2404394      0              5.9636959      43.221491    
     67800   2.5074919      2.2264315      0              5.9858327      42.933736    
     67900   2.5120663      2.1362146      0              5.9024741      42.220127    
     68000   2.4722055      2.1358127      0              5.8423102      42.095114    
     68100   2.4748255      2.1342563      0              5.844682       42.312561    
     68200   2.4628597      2.1637917      0              5.8562774      42.464654    
     68300   2.4871228      2.1433686      0              5.8722312      41.965015    
     68400   2.4845086      2.1614831      0              5.8864263      42.301714    
     68500   2.4844124      2.1615859      0              5.8863847      42.349299    
     68600   2.3959814      2.2127066      0              5.8049239      42.998608    
     68700   2.3804684      2.1570044      0              5.7259635      42.131828    
     68800   2.4796925      2.0349813      0              5.7527039      41.080481    
     68900   2.4948841      2.1807639      0              5.9212627      42.688683    
     69000   2.509392       2.1661531      0              5.9284033      42.519221    
     69100   2.4951134      2.0969006      0              5.8377432      41.339053    
     69200   2.4563417      2.0985584      0              5.781272       41.558189    
     69300   2.3928003      2.1772246      0              5.7646726      42.536735    
     69400   2.4137402      2.1417769      0              5.7606192      41.921221    
     69500   2.4669066      2.0940507      0              5.7926038      41.763948    
     69600   2.5329026      2.0584372      0              5.855936       41.372168    
     69700   2.5097582      2.0682564      0              5.8310556      41.450052    
     69800   2.4243144      2.0643529      0              5.6990488      41.086961    
     69900   2.3976127      2.0459348      0              5.6405978      41.148087    
     70000   2.4236885      2.0682182      0              5.7019758      41.166615    
     70100   2.4937051      2.0922569      0              5.8309881      41.933058    
     70200   2.5245569      2.1721503      0              5.9571366      42.676038    
     70300   2.4609311      2.1311535      0              5.8207477      42.081395    
     70400   2.3488079      2.1311741      0              5.6526656      41.805842    
     70500   2.3430553      2.0980095      0              5.6108764      41.340971    
     70600   2.4080633      2.061396       0              5.6717272      41.073856    
     70700   2.44274        2.0955443      0              5.7578651      41.485461    
     70800   2.4093454      2.1681544      0              5.7804079      42.21061     
     70900   2.3667992      2.0733979      0              5.6218632      41.253805    
     71000   2.3961771      1.9575791      0              5.5500897      39.726309    
     71100   2.3611457      2.0670063      0              5.6069955      41.223487    
     71200   2.403616       2.0938985      0              5.697562       41.673854    
     71300   2.3770581      2.1469832      0              5.7108293      42.274327    
     71400   2.3191703      2.1197066      0              5.5967635      41.900179    
     71500   2.3082732      1.9828334      0              5.4435527      40.049623    
     71600   2.321905       2.0412954      0              5.5224522      40.828919    
     71700   2.3777412      2.0821244      0              5.6469947      41.425744    
     71800   2.4248215      2.0508845      0              5.6863408      40.953777    
     71900   2.4056699      1.9928499      0              5.5995927      40.203608    
     72000   2.2821937      2.0682081      0              5.4898271      41.229191    
     72100   2.328389       2.0158106      0              5.5066888      40.752824    
     72200   2.3582467      2.0103238      0              5.5459666      40.15128     
     72300   2.3856628      2.0027032      0              5.5794501      40.547136    
     72400   2.3997157      2.0113942      0              5.6092101      40.354838    
     72500   2.3776003      2.0045168      0              5.5691758      40.664296    
     72600   2.2836458      2.020744       0              5.4445402      40.590932    
     72700   2.3099547      1.9609509      0              5.4241912      39.607716    
     72800   2.2971072      2.1078015      0              5.5517799      41.63488     
     72900   2.3692246      2.069493       0              5.6215946      41.002496    
     73000   2.369738       2.0134428      0              5.5663141      40.409909    
     73100   2.3441524      1.9923688      0              5.5068804      40.117086    
     73200   2.3543512      1.948724       0              5.4785265      39.782237    
     73300   2.2731397      2.0638107      0              5.4718553      40.815873    
     73400   2.3113452      2.0185674      0              5.4838923      40.504308    
     73500   2.3440482      2.0041992      0              5.5185547      40.059594    
     73600   2.3333602      2.0175105      0              5.5158417      40.58438     
     73700   2.2914619      2.0101973      0              5.4457119      40.810757    
     73800   2.2562407      1.9806224      0              5.3633308      39.98576     
     73900   2.3000133      1.9115859      0              5.3599213      39.196595    
     74000   2.3158253      2.0471943      0              5.5192361      40.722043    
     74100   2.4025731      1.9610029      0              5.5631028      39.863586    
     74200   2.3264162      1.9871282      0              5.4750486      39.981727    
     74300   2.3253635      1.9056402      0              5.3919822      38.985111    
     74400   2.2539818      2.00487        0              5.3841918      40.166413    
     74500   2.3175698      1.9349223      0              5.4095796      39.317009    
     74600   2.3481708      1.9068674      0              5.4274038      39.03723     
     74700   2.2531305      1.9874867      0              5.3655322      39.814265    
     74800   2.2406639      1.8770586      0              5.2364133      38.544445    
     74900   2.270933       1.8763685      0              5.2811047      38.44038     
     75000   2.2862185      1.9852646      0              5.4129179      40.086187    
     75100   2.2840522      2.0034869      0              5.4278923      40.090964    
     75200   2.2826272      1.9636567      0              5.3859257      39.446857    
     75300   2.266056       1.8758954      0              5.2733196      38.506468    
     75400   2.1379834      1.9782955      0              5.1837048      39.819265    
     75500   2.2556445      1.910069       0              5.2918836      38.892548    
     75600   2.2851753      2.0023313      0              5.4284206      40.005557    
     75700   2.2519093      2.0160779      0              5.3922924      40.509399    
     75800   2.2974821      1.8424379      0              5.2869784      38.244154    
     75900   2.1979561      1.9355316      0              5.230856       39.427765    
     76000   2.217386       1.9554318      0              5.2798867      39.660188    
     76100   2.239285       2.0935126      0              5.4508         41.351697    
     76200   2.289495       2.0024781      0              5.4350437      40.13809     
     76300   2.2173658      2.0167841      0              5.3412088      40.230296    
     76400   2.2343158      1.9155002      0              5.2653374      39.250832    
     76500   2.2378541      1.8689453      0              5.2240873      38.480523    
     76600   2.225036       1.8832466      0              5.2191709      38.501668    
     76700   2.2729774      1.9216628      0              5.3294642      39.203858    
     76800   2.2472995      2.0233772      0              5.3926805      40.549406    
     76900   2.2254515      1.9410796      0              5.2776268      39.324356    
     77000   2.1975448      1.9001087      0              5.1948164      38.459739    
     77100   2.2477997      1.8308605      0              5.2009137      37.90379     
     77200   2.2273729      1.8991147      0              5.2385426      38.549611    
     77300   2.2450305      1.9296688      0              5.2955703      39.193799    
     77400   2.268588       1.9357774      0              5.3369978      39.131971    
     77500   2.170415       1.9688217      0              5.2228546      39.642086    
     77600   2.1689623      1.8728224      0              5.1246773      38.746847    
     77700   2.1330782      1.9449454      0              5.1430005      39.078193    
     77800   2.1827422      1.941996       0              5.2145106      39.55598     
     77900   2.2830087      1.9107358      0              5.3335767      39.207657    
     78000   2.2213474      1.9996928      0              5.3300869      40.150993    
     78100   2.1668884      1.8911227      0              5.1398683      38.473678    
     78200   2.1696757      1.8435317      0              5.0964562      37.899206    
     78300   2.1489518      1.9006321      0              5.1224858      38.648328    
     78400   2.165186       1.9462985      0              5.1924917      39.582109    
     78500   2.2278356      1.8976961      0              5.2378179      38.597149    
     78600   2.1796858      1.8558421      0              5.1237744      38.197429    
     78700   2.1417958      1.813115       0              5.0242401      37.653588    
     78800   2.1533306      1.8318812      0              5.0603         37.928491    
     78900   2.1771744      1.8795952      0              5.1437622      38.684651    
     79000   2.1681709      1.9339274      0              5.1845957      39.079179    
     79100   2.1436425      1.839144       0              5.0530376      38.181613    
     79200   2.0752048      1.8485637      0              4.959851       37.951643    
     79300   2.1569285      1.7907134      0              5.0245264      37.311073    
     79400   2.1531506      1.8920526      0              5.1202015      38.822343    
     79500   2.1527972      1.9032494      0              5.1308685      38.712921    
     79600   2.1027169      1.8675672      0              5.0201024      38.288504    
     79700   2.0866047      1.8128929      0              4.9412716      37.514936    
     79800   2.1331241      1.7692464      0              4.9673702      36.84481     
     79900   2.1216212      1.8464929      0              5.0273708      38.283481    
     80000   2.1735283      1.8316039      0              5.0903043      37.790118    
     80100   2.1305909      1.8629533      0              5.0572792      38.030844    
     80200   2.0712126      1.8011845      0              4.9064863      37.49985     
     80300   2.1503603      1.6800984      0              4.9040639      35.682554    
     80400   2.12576        1.7864983      0              4.9735814      36.985784    
     80500   2.1164517      1.8444959      0              5.0176234      37.679677    
     80600   2.1287527      1.8142653      0              5.0058353      37.599374    
     80700   2.1456164      1.7669428      0              4.9837959      36.667792    
     80800   2.1178197      1.7864942      0              4.9616726      37.28518     
     80900   2.0819121      1.8313092      0              4.9526524      37.691479    
     81000   2.084988       1.8227083      0              4.9486633      37.907421    
     81100   2.1047225      1.7923919      0              4.9479342      37.372216    
     81200   2.1065162      1.7799916      0              4.9382231      37.025787    
     81300   2.0796834      1.7919746      0              4.9099764      37.251918    
     81400   2.067126       1.7332721      0              4.8324471      36.42501     
     81500   2.049311       1.7021857      0              4.7746512      36.053698    
     81600   2.063508       1.7745131      0              4.8682638      36.913424    
     81700   2.1298376      1.7710781      0              4.9642746      37.112007    
     81800   2.0849996      1.8182419      0              4.9442141      37.584442    
     81900   2.0683161      1.7702941      0              4.8712534      36.686315    
     82000   2.0580923      1.708714       0              4.7943452      36.158969    
     82100   2.0238901      1.6971932      0              4.731546       35.897879    
     82200   2.0314587      1.6873199      0              4.7330201      35.599867    
     82300   2.0891693      1.7335808      0              4.8658046      36.516975    
     82400   2.083236       1.8012918      0              4.92462        37.329844    
     82500   2.0470993      1.8165492      0              4.8856989      36.967159    
     82600   2.0411607      1.712768       0              4.7730141      36.223619    
     82700   2.0252945      1.7035907      0              4.740049       35.673397    
     82800   2.0511956      1.7080186      0              4.7833097      36.240577    
     82900   2.0668561      1.714823       0              4.8135934      36.126658    
     83000   2.0673675      1.7141336      0              4.8136707      36.22531     
     83100   2.0168361      1.7792708      0              4.8030477      36.968942    
     83200   2.0323896      1.7455713      0              4.7926672      36.648355    
     83300   2.0508764      1.6938454      0              4.7686579      35.867837    
     83400   1.994827       1.7448533      0              4.7356328      36.558632    
     83500   1.9915663      1.7640752      0              4.7499659      36.974112    
     83600   2.0085439      1.8196793      0              4.831024       37.529633    
     83700   2.0550335      1.800279       0              4.8813241      37.277201    
     83800   2.0299718      1.7154294      0              4.7589003      36.195469    
     83900   2.0111139      1.6653444      0              4.6805423      35.826549    
     84000   1.9657235      1.7603373      0              4.7074827      36.692359    
     84100   2.0314354      1.7349097      0              4.7805749      36.52727     
     84200   2.0270105      1.7782903      0              4.8173214      36.829271    
     84300   1.9599016      1.7551155      0              4.6935325      36.79802     
     84400   1.9937732      1.6270975      0              4.616297       34.750459    
     84500   1.9510076      1.7348899      0              4.6599724      36.485847    
     84600   2.0395135      1.6888235      0              4.7465999      35.951447    
     84700   2.065772       1.6715822      0              4.7687272      35.775805    
     84800   1.9412804      1.7223557      0              4.6328546      36.05245     
     84900   1.9477858      1.6399246      0              4.5601767      35.135379    
     85000   1.968716       1.6806894      0              4.6323215      35.550123    
     85100   1.9790596      1.7370916      0              4.7042315      36.356832    
     85200   2.0058436      1.7077583      0              4.7150546      36.182506    
     85300   1.9847792      1.6304477      0              4.6061629      34.920692    
     85400   1.9424416      1.6066412      0              4.518881       34.65105     
     85500   1.9190382      1.6902968      0              4.5674485      35.745911    
     85600   2.0112166      1.6277427      0              4.6430945      35.165297    
     85700   1.9934741      1.671758       0              4.6605091      35.645024    
     85800   1.9447386      1.7045193      0              4.6202029      35.947007    
     85900   1.8733049      1.680354       0              4.4889393      35.495286    
     86000   1.8919175      1.5933152      0              4.4298057      34.462289    
     86100   1.8712328      1.6945509      0              4.5000296      35.426308    
     86200   1.9358957      1.673654       0              4.5760797      35.553869    
     86300   1.942345       1.712965       0              4.6250598      36.232641    
     86400   1.919234       1.7318961      0              4.6093414      36.184924    
     86500   1.8907175      1.6470581      0              4.4817496      35.161989    
[...]
    128400   0.72299812     0.54197395     0              1.6259416      16.611622    
    128500   0.73860789     0.54000191     0              1.6473728      16.640032    
    128600   0.74140624     0.54296315     0              1.6545295      16.635795    
    128700   0.71328172     0.53761381     0              1.607014       16.404498    
    128800   0.70547552     0.529038       0              1.5867346      16.295715    
    128900   0.70674173     0.53358059     0              1.5931755      16.41725     
    129000   0.70297528     0.54739033     0              1.6013384      16.659378    
    129100   0.72313325     0.51905151     0              1.6032217      16.013235    
    129200   0.69270456     0.53339275     0              1.5719422      16.378227    
    129300   0.69497757     0.50471571     0              1.5466731      15.869084    
    129400   0.70266841     0.49322834     0              1.5467163      15.638214    
    129500   0.70003026     0.52689593     0              1.5764286      16.239006    
    129600   0.71652        0.53143092     0              1.6056861      16.312237    
    129700   0.6973607      0.51874505     0              1.5642753      16.131235    
    129800   0.68264122     0.51271828     0              1.5361801      15.733282    
    129900   0.68450005     0.49621565     0              1.5224644      15.707436    
    130000   0.67996296     0.49286756     0              1.512314       15.592946    
    130100   0.67658372     0.49222393     0              1.506604       15.499179    
    130200   0.67274349     0.49497324     0              1.5035958      15.629983    
    130300   0.66767188     0.50215443     0              1.5031732      15.654105    
    130400   0.67570927     0.48119543     0              1.4942644      15.433922    
    130500   0.65775208     0.48673176     0              1.4728781      15.5518      
    130600   0.6457663      0.48616419     0              1.4543407      15.298211    
    130700   0.65802339     0.46685478     0              1.4534079      14.969562    
    130800   0.67345634     0.47994647     0              1.4896377      15.591163    
    130900   0.67382081     0.49029796     0              1.5005357      15.474924    
    131000   0.67008638     0.45990013     0              1.4645389      14.848289    
    131100   0.65096747     0.46899053     0              1.4449649      15.062845    
    131200   0.63718282     0.48319953     0              1.4385071      15.28392     
    131300   0.65505961     0.44946292     0              1.4315725      14.51801     
    131400   0.62588539     0.46536862     0              1.4037383      14.845504    
    131500   0.61430338     0.45659795     0              1.3776031      14.707579    
    131600   0.64080964     0.44046743     0              1.4012126      14.480339    
    131700   0.63931342     0.47910087     0              1.4376027      15.284732    
    131800   0.6465762      0.45371167     0              1.4231024      14.783178    
    131900   0.62206466     0.46182818     0              1.3944696      14.750204    
    132000   0.61317505     0.45973389     0              1.3790474      14.819486    
    132100   0.63149879     0.42618927     0              1.3729749      14.147846    
    132200   0.60509388     0.46323906     0              1.3704367      14.877249    
    132300   0.61054537     0.44445448     0              1.3598254      14.334746    
    132400   0.59205768     0.45277395     0              1.3404268      14.670692    
    132500   0.60438785     0.43142012     0              1.3375592      14.226778    
    132600   0.60745619     0.44347856     0              1.3542179      14.487392    
    132700   0.62754051     0.42873627     0              1.3695874      14.258082    
    132800   0.60687877     0.43281349     0              1.3426872      14.213094    
    132900   0.58473353     0.43093898     0              1.307611       14.058731    
    133000   0.58379991     0.43179558     0              1.3070678      14.256605    
    133100   0.59151367     0.43390464     0              1.3207419      14.198142    
    133200   0.60611247     0.41868309     0              1.3274079      14.027801    
    133300   0.59353386     0.4075075      0              1.2973736      13.756868    
    133400   0.5740337      0.40944977     0              1.2700799      13.840878    
    133500   0.57009279     0.41607095     0              1.2707926      13.866866    
    133600   0.58235695     0.41318406     0              1.2862929      13.92693     
    133700   0.59571993     0.4233768      0              1.3165204      13.956545    
    133800   0.58759763     0.41047124     0              1.2914373      13.666049    
    133900   0.56084529     0.41687662     0              1.2577338      13.770473    
    134000   0.57104673     0.38797331     0              1.2441252      13.296978    
    134100   0.54708063     0.41293964     0              1.2331599      13.837391    
    134200   0.55859402     0.38992516     0              1.2274071      13.276894    
    134300   0.55615915     0.38663422     0              1.2204656      13.079558    
    134400   0.543587       0.39790194     0              1.2128843      13.312623    
    134500   0.5483892      0.38818359     0              1.2103657      13.426144    
    134600   0.54345632     0.39863406     0              1.2134205      13.401626    
    134700   0.54834827     0.38213224     0              1.204253       13.054851    
    134800   0.52453615     0.39325306     0              1.1796731      13.185735    
    134900   0.52235925     0.38163556     0              1.1647919      13.069984    
    135000   0.51811238     0.40289758     0              1.1796867      13.279263    
    135100   0.54108832     0.40238255     0              1.2136187      13.418415    
    135200   0.52694116     0.40628672     0              1.1963125      13.547619    
    135300   0.5334811      0.37260899     0              1.1724399      12.890975    
    135400   0.53064113     0.36065646     0              1.1562295      12.587545    
    135500   0.51948209     0.36312189     0              1.1419645      12.673132    
    135600   0.51090767     0.36130308     0              1.1272904      12.73752     
    135700   0.50605972     0.35108499     0              1.1098039      12.390415    
    135800   0.50912266     0.32949234     0              1.0928034      11.909031    
    135900   0.49968897     0.36173964     0              1.1109071      12.693327    
    136000   0.5201885      0.35554214     0              1.1354439      12.451164    
    136100   0.51062483     0.35753041     0              1.1230937      12.53485     
    136200   0.50405721     0.34534079     0              1.1010574      12.283322    
    136300   0.4937368      0.35106502     0              1.0913086      12.44537     
    136400   0.47610986     0.37177585     0              1.0855919      12.778803    
    136500   0.50095123     0.33192752     0              1.0829875      11.95274     
    136600   0.47777161     0.33731178     0              1.0536193      12.028859    
    136700   0.46916666     0.33191038     0              1.0353167      11.963637    
    136800   0.48285552     0.32905221     0              1.0529818      11.853827    
    136900   0.48059528     0.34610735     0              1.0666483      12.370689    
    137000   0.47330965     0.35085737     0              1.0604752      12.3361      
    137100   0.47891827     0.32775224     0              1.0457789      11.89558     
    137200   0.46545895     0.33943711     0              1.0372846      12.127683    
    137300   0.46813244     0.32491661     0              1.0267724      11.7864      
    137400   0.4627457      0.31501733     0              1.008797       11.589001    
    137500   0.45702858     0.307178       0              0.99238613     11.392672    
    137600   0.44223335     0.31479353     0              0.97781966     11.408961    
    137700   0.43976835     0.31742291     0              0.97675335     11.466229    
    137800   0.4516071      0.32475373     0              1.0018336      11.686638    
    137900   0.47277868     0.30106863     0              1.0098904      11.098767    
    138000   0.45641852     0.30132165     0              0.98561514     11.182545    
    138100   0.4413936      0.30784198     0              0.9696091      11.340599    
    138200   0.43801103     0.30848107     0              0.96517681     11.326287    
    138300   0.44241449     0.29606104     0              0.95935875     10.988964    
    138400   0.43711996     0.28296642     0              0.93832621     10.869666    
    138500   0.41452032     0.29865264     0              0.92012952     11.093759    
    138600   0.42561357     0.29165306     0              0.92976169     10.98335     
    138700   0.43924613     0.30263626     0              0.96118375     11.290146    
    138800   0.44056989     0.28848724     0              0.94901939     10.901714    
    138900   0.43278677     0.27569625     0              0.92455943     10.642199    
    139000   0.41739961     0.2846086      0              0.9104023      10.712964    
    139100   0.40117201     0.2971217      0              0.89858589     11.044013    
    139200   0.41196655     0.27435035     0              0.89199845     10.497118    
    139300   0.40541803     0.26779988     0              0.87562999     10.374383    
    139400   0.40010686     0.26117198     0              0.86103922     10.169574    
    139500   0.39437452     0.2812081      0              0.87248104     10.617575    
    139600   0.41426174     0.27334913     0              0.89443833     10.360411    
    139700   0.40694755     0.27573407     0              0.88585734     10.534664    
    139800   0.40395698     0.26423872     0              0.86987832     10.288118    
    139900   0.39690646     0.26161562     0              0.85668461     10.235502    
    140000   0.39555555     0.24704921     0              0.84009282     9.8829746    
    140100   0.38889683     0.24953337     0              0.83259377     9.876722     
    140200   0.38904943     0.24773641     0              0.83102561     9.8604335    
    140300   0.38332352     0.25029618     0              0.8250007      9.900589     
    140400   0.38230779     0.23592133     0              0.80910301     9.5369759    
    140500   0.36806371     0.24755118     0              0.79937716     9.71603      
    140600   0.36955397     0.2469089      0              0.80096918     9.8451236    
    140700   0.38224359     0.24444542     0              0.81753084     9.7617883    
    140800   0.37509878     0.25322789     0              0.81560133     9.9364037    
    140900   0.36068986     0.24595386     0              0.78672447     9.7630963    
    141000   0.35510027     0.24582587     0              0.77821619     9.7484764    
    141100   0.35658167     0.2359863      0              0.77059763     9.4926269    
    141200   0.35621228     0.22373572     0              0.75779325     9.2251303    
    141300   0.34541483     0.22604004     0              0.74390929     9.2629366    
    141400   0.34118377     0.22335368     0              0.73487945     9.2730096    
    141500   0.3462336      0.22120255     0              0.74029936     9.1012278    
    141600   0.35626594     0.22182628     0              0.75596426     9.047618     
    141700   0.34934988     0.22248813     0              0.74625707     9.0828279    
    141800   0.33377586     0.22552635     0              0.72594567     9.2651199    
    141900   0.33042775     0.2237944      0              0.71919401     9.0900466    
    142000   0.3365889      0.2086461      0              0.71328293     8.7779303    
    142100   0.32479632     0.21103507     0              0.69799167     8.9241625    
    142200   0.32459827     0.19562278     0              0.68228244     8.4387236    
    142300   0.32546132     0.19634018     0              0.68429379     8.4875102    
    142400   0.33109343     0.1924786      0              0.68887625     8.3103115    
    142500   0.32449951     0.19760685     0              0.68411844     8.5206395    
    142600   0.31158841     0.20357087     0              0.67072527     8.5858675    
    142700   0.30804567     0.19812555     0              0.65996844     8.4263338    
    142800   0.30825493     0.19384124     0              0.65599786     8.3356874    
    142900   0.30577093     0.18865691     0              0.64708935     8.2177773    
    143000   0.29927746     0.17923849     0              0.62793548     7.9585403    
    143100   0.29432293     0.18801386     0              0.62928269     8.2320304    
    143200   0.30155164     0.19098295     0              0.64308954     8.2308961    
    143300   0.30166855     0.19069933     0              0.6429812      8.2547982    
    143400   0.29600694     0.17644057     0              0.62023418     7.8168045    
    143500   0.2866482      0.1833884      0              0.61315075     8.0453522    
    143600   0.2848707      0.18058125     0              0.60767866     7.9889266    
    143700   0.28155432     0.17525081     0              0.59737607     7.8009883    
    143800   0.28147259     0.16452654     0              0.58652927     7.4572275    
    143900   0.27293426     0.17071112     0              0.57991261     7.7057634    
    144000   0.27313289     0.16043255     0              0.56993184     7.3601811    
    144100   0.26653538     0.15911122     0              0.55871907     7.3401512    
    144200   0.26439897     0.16613394     0              0.56253875     7.5643131    
    144300   0.27036775     0.16959583     0              0.57494943     7.6285752    
    144400   0.26743617     0.16893571     0              0.56989409     7.661303     
    144500   0.2602988      0.15855265     0              0.54881019     7.317004     
    144600   0.25568822     0.15823979     0              0.54158485     7.3289721    
    144700   0.25635388     0.14974564     0              0.5340887      7.047165     
    144800   0.25426951     0.14390311     0              0.52512114     6.8037809    
    144900   0.24557666     0.14676389     0              0.51494902     6.9908859    
    145000   0.23809115     0.1534987      0              0.51046104     7.1213285    
    145100   0.23913288     0.14131701     0              0.49984119     6.7639355    
    145200   0.23242448     0.14123627     0              0.48970277     6.8183476    
    145300   0.23875213     0.13687067     0              0.49482399     6.6915189    
    145400   0.2357455      0.14900853     0              0.50245411     6.908316     
    145500   0.23283749     0.1420748      0              0.49116049     6.7656588    
    145600   0.23003273     0.13091864     0              0.47579926     6.4855592    
    145700   0.22237032     0.13576651     0              0.46915911     6.5533948    
    145800   0.21871365     0.13338511     0              0.46129539     6.5231092    
    145900   0.22039963     0.12317464     0              0.45361266     6.2261051    
    146000   0.21278496     0.12570417     0              0.44472576     6.2852654    
    146100   0.2102541      0.12210743     0              0.43733458     6.1311128    
    146200   0.20523171     0.11502819     0              0.42272544     5.8743864    
    146300   0.20591499     0.11473299     0              0.42345466     5.9282048    
    146400   0.20745003     0.12103036     0              0.43205346     6.0437241    
    146500   0.20651727     0.11941707     0              0.42904171     6.0956245    
    146600   0.19933592     0.11533396     0              0.41419185     5.9878671    
    146700   0.1993099      0.11037491     0              0.40919378     5.7544631    
    146800   0.19617021     0.10547563     0              0.39958727     5.6412404    
    146900   0.19055713     0.10466583     0              0.39036195     5.5623084    
    147000   0.18747877     0.10368528     0              0.38476612     5.581138     
    147100   0.1863217      0.0993455      0              0.37869158     5.4116672    
    147200   0.18209748     0.097100086    0              0.37011294     5.3182822    
    147300   0.17683941     0.093908455    0              0.35903805     5.1867125    
    147400   0.17548653     0.096528027    0              0.35962929     5.2644427    
    147500   0.17820244     0.09191105     0              0.3590842      5.0865728    
    147600   0.17513761     0.088406477    0              0.35098461     5.018405     
    147700   0.1685585      0.089762786    0              0.34247709     5.0167589    
    147800   0.16484686     0.090656175    0              0.33780572     5.0743505    
    147900   0.16495591     0.084111289    0              0.33142434     4.7826522    
    148000   0.15717692     0.088186951    0              0.32383721     4.9680233    
    148100   0.15693782     0.084334664    0              0.31962644     4.8910589    
    148200   0.15626883     0.079103234    0              0.31339203     4.6418061    
    148300   0.15124534     0.080533312    0              0.30729055     4.7088017    
    148400   0.14892533     0.077926567    0              0.30120548     4.5722466    
    148500   0.14690838     0.074583356    0              0.29483833     4.4264722    
    148600   0.14327755     0.073222454    0              0.28803384     4.4166982    
    148700   0.14090022     0.070529984    0              0.28177711     4.2817074    
    148800   0.13880919     0.067475924    0              0.27558804     4.2012509    
    148900   0.13338243     0.069126277    0              0.26910224     4.2491574    
    149000   0.13242509     0.064392497    0              0.26293314     4.0683773    
    149100   0.12874703     0.0641113      0              0.25713755     4.0422554    
    149200   0.12524516     0.062683386    0              0.2504594      3.9718447    
    149300   0.12329539     0.059986172    0              0.24483896     3.8303088    
    149400   0.11833793     0.060776624    0              0.23819684     3.8711172    
    149500   0.11592323     0.058353568    0              0.23215351     3.740895     
    149600   0.11034649     0.060271722    0              0.22571064     3.871869     
    149700   0.11072011     0.053882671    0              0.21988174     3.582209     
    149800   0.10781228     0.05169804     0              0.2133375      3.5100415    
    149900   0.10621515     0.048390876    0              0.20763581     3.3535802    
    150000   0.10309512     0.046885113    0              0.20145228     3.2891762    
Loop time of 21.4308 on 1 procs for 100000 steps with 2048 atoms

Performance: 806315.473 tau/day, 4666.178 timesteps/s, 9.556 Matom-step/s
98.9% CPU use with 1 MPI tasks x 1 OpenMP threads

MPI task timing breakdown:
Section |  min time  |  avg time  |  max time  |%varavg| %total
---------------------------------------------------------------
Pair    | 12.687     | 12.687     | 12.687     |   0.0 | 59.20
Neigh   | 4.6676     | 4.6676     | 4.6676     |   0.0 | 21.78
Comm    | 0.76007    | 0.76007    | 0.76007    |   0.0 |  3.55
Output  | 0.19762    | 0.19762    | 0.19762    |   0.0 |  0.92
Modify  | 2.523      | 2.523      | 2.523      |   0.0 | 11.77
Other   |            | 0.596      |            |       |  2.78

Nlocal:           2048 ave        2048 max        2048 min
Histogram: 1 0 0 0 0 0 0 0 0 0
Nghost:           1381 ave        1381 max        1381 min
Histogram: 1 0 0 0 0 0 0 0 0 0
Neighs:          12288 ave       12288 max       12288 min
Histogram: 1 0 0 0 0 0 0 0 0 0

Total # of neighbors = 12288
Ave neighs/atom = 6
Neighbor list builds = 6214
Dangerous builds = 0
Total wall time: 0:00:34
