LAMMPS (15 Sep 2022)
OMP_NUM_THREADS environment is not set. Defaulting to 1 thread. (src/comm.cpp:98)
  using 1 OpenMP thread(s) per MPI task
# 3d WCA system, random initial configuration

#variable density equal 0.5
variable initial_temperature equal 3.0
variable final_temperature equal 0.1
variable dt equal 0.002
variable tau equal 100*${dt}
variable tau equal 100*0.002
variable thermo_time equal 50000*${dt}
variable thermo_time equal 50000*0.002
variable equil_steps equal 50000
variable run_steps equal 100000

units           lj
atom_style      atomic
dimension       3

lattice         fcc ${density}
lattice         fcc 1.4
Lattice spacing in x,y,z = 1.4189834 1.4189834 1.4189834
region          box block 0 8 0 8 0 8
# number of atom types
create_box      1 box
Created orthogonal box = (0 0 0) to (11.351867 11.351867 11.351867)
  1 by 1 by 1 MPI processor grid
create_atoms    1 box
Created 2048 atoms
  using lattice units in orthogonal box = (0 0 0) to (11.351867 11.351867 11.351867)
  create_atoms CPU = 0.000 seconds
mass 1 1.0

velocity all create ${initial_temperature} 12345
velocity all create 3 12345

pair_style      lj/cut 1.0
#type_1 type_2 epsilon sigma cutoff
pair_coeff      1 1 10.0 0.89089871814 1.0
pair_modify shift yes

timestep ${dt}
timestep 0.002
thermo ${thermo_time}
thermo 100

fix 1 all nvt temp ${initial_temperature} ${initial_temperature} ${tau}
fix 1 all nvt temp 3 ${initial_temperature} ${tau}
fix 1 all nvt temp 3 3 ${tau}
fix 1 all nvt temp 3 3 0.2
run ${equil_steps}
run 50000
Generated 0 of 0 mixed pair_coeff terms from geometric mixing rule
Neighbor list info ...
  update: every = 1 steps, delay = 0 steps, check = yes
  max neighbors/atom: 2000, page size: 100000
  master list distance cutoff = 1.3
  ghost atom cutoff = 1.3
  binsize = 0.65, bins = 18 18 18
  1 neighbor lists, perpetual/occasional/extra = 1 0 0
  (1) pair lj/cut, perpetual
      attributes: half, newton on
      pair build: half/bin/atomonly/newton
      stencil: half/bin/3d
      bin: standard
Per MPI rank memory allocation (min/avg/max) = 3.156 | 3.156 | 3.156 Mbytes
   Step          Temp          E_pair         E_mol          TotEng         Press     
         0   3              0              0              4.4978027      4.1979492    
       100   1.7849968      2.2006448      0              4.8768326      50.928329    
       200   2.0330395      2.4580733      0              5.5061435      54.706507    
       300   2.2937111      2.7926284      0              6.2315151      59.646192    
       400   2.59049        3.1075071      0              6.9913447      63.447804    
       500   2.7822297      3.5277115      0              7.6990183      69.228645    
       600   3.0533465      3.6721586      0              8.2499419      71.024941    
       700   3.1624553      3.7369705      0              8.4783372      72.306614    
       800   3.1601768      3.561972       0              8.2999226      70.047792    
       900   2.9603169      3.5236514      0              7.9619586      69.244412    
      1000   2.8842319      3.486234       0              7.8104693      68.561525    
      1100   2.9207571      3.5588323      0              7.9378288      69.374949    
      1200   3.0968121      3.5633376      0              8.2062876      69.893053    
      1300   3.1522651      3.6068359      0              8.3329247      70.898081    
      1400   3.107367       3.5505853      0              8.2093599      69.94013     
      1500   2.8743372      3.6617816      0              7.9711822      70.907259    
      1600   2.9644364      3.4295845      0              7.8740679      68.057667    
      1700   2.9280397      3.5976184      0              7.9875334      70.451644    
      1800   3.046658       3.6383386      0              8.2060941      70.906285    
      1900   3.1135861      3.6272852      0              8.295384       70.854812    
      2000   3.0581976      3.5957753      0              8.1808319      70.222091    
      2100   2.9875387      3.5160472      0              7.9951672      69.100218    
      2200   2.8901618      3.5820283      0              7.9151541      69.622637    
      2300   3.0143223      3.4976491      0              8.0169247      69.124495    
      2400   3.0737651      3.5873733      0              8.1957697      70.135268    
      2500   3.0635447      3.6713927      0              8.2644659      71.197117    
      2600   3.0232987      3.6090748      0              8.1418086      70.155639    
      2700   2.92712        3.5900739      0              7.97861        70.043472    
      2800   2.9324022      3.5387092      0              7.9351647      69.309705    
      2900   3.0166631      3.5287663      0              8.0515515      69.443834    
      3000   3.004253       3.7001017      0              8.2042809      71.239902    
      3100   3.0839151      3.6084947      0              8.2321086      70.156214    
      3200   3.0091612      3.5993706      0              8.1109085      70.139675    
      3300   2.9005228      3.6223768      0              7.9710366      70.541391    
      3400   2.9661979      3.5080885      0              7.9552129      69.173117    
      3500   2.926377       3.6869292      0              8.0743514      71.392327    
      3600   3.0177729      3.6804761      0              8.2049253      71.517242    
      3700   2.9906855      3.7410248      0              8.2248627      71.828371    
      3800   2.986955       3.6206788      0              8.0989236      70.241276    
      3900   2.9226569      3.5978706      0              7.9797153      70.377671    
      4000   2.9288511      3.5854952      0              7.9766267      69.888855    
      4100   2.9903583      3.6189346      0              8.1022818      69.996821    
      4200   3.0968756      3.5620171      0              8.2050623      70.228856    
      4300   3.0777468      3.5679918      0              8.1823577      69.829091    
      4400   2.9298917      3.5903784      0              7.98307        69.924464    
      4500   2.9886942      3.4465823      0              7.9274346      68.125354    
      4600   2.9459666      3.5893348      0              8.006127       70.479191    
      4700   2.9625216      3.6545004      0              8.0961129      71.082578    
      4800   3.0304517      3.5841995      0              8.1276574      69.973232    
      4900   2.9613824      3.6694728      0              8.1093775      71.105539    
      5000   2.9136733      3.6227778      0              7.9911537      70.644932    
      5100   2.819303       3.6018673      0              7.8287568      70.171946    
      5200   3.0161504      3.4260957      0              7.9481123      67.879338    
      5300   2.9829568      3.6140102      0              8.0862606      70.675372    
      5400   3.0368389      3.5748502      0              8.1278843      70.255433    
      5500   2.9675597      3.6761805      0              8.1253465      71.354556    
      5600   3.0151437      3.5282468      0              8.048754       69.345204    
      5700   2.9148095      3.5350616      0              7.9051409      69.501998    
      5800   2.9055979      3.5660347      0              7.9223034      69.52619     
      5900   3.0096085      3.6214536      0              8.1336621      70.522983    
      6000   3.0512376      3.5909725      0              8.1655941      70.316735    
      6100   2.9836173      3.6270317      0              8.1002724      70.402803    
      6200   2.9608844      3.5629389      0              8.002097       69.498683    
      6300   2.9332443      3.5149987      0              7.9127167      69.332402    
      6400   2.9121975      3.5389192      0              7.9050825      69.271121    
      6500   3.011528       3.5851529      0              8.1002392      69.781667    
      6600   3.0338293      3.6369924      0              8.1855143      70.769324    
      6700   3.0151306      3.6307484      0              8.1512359      70.509644    
      6800   2.9669601      3.553139       0              8.0014062      69.619705    
      6900   2.8990338      3.5451999      0              7.8916273      69.2417      
      7000   2.9616293      3.5485478      0              7.9888226      69.79134     
      7100   3.0201994      3.5601272      0              8.0882142      69.364421    
      7200   3.0136106      3.5887106      0              8.1069193      70.195772    
      7300   3.0181756      3.5961066      0              8.1211593      70.024147    
      7400   2.9382805      3.69165        0              8.0969187      70.990871    
      7500   2.9927797      3.548358       0              8.0353355      69.666588    
      7600   2.8898044      3.6305371      0              7.9631271      70.66947     
      7700   3.009929       3.4918337      0              8.0045227      69.15313     
      7800   3.0144521      3.665042       0              8.1845123      71.067804    
      7900   3.0719546      3.6263799      0              8.2320619      70.728327    
      8000   3.0267458      3.5890956      0              8.1269975      70.209777    
      8100   2.9324889      3.6107095      0              8.007295       70.601968    
      8200   2.9328347      3.6186141      0              8.015718       70.316496    
      8300   2.9893487      3.5871366      0              8.0689703      70.155338    
      8400   3.0355924      3.5963051      0              8.1474703      70.336038    
      8500   2.9798406      3.7322249      0              8.1998033      71.940261    
      8600   3.0484995      3.5751367      0              8.1456532      70.105435    
      8700   2.9368832      3.5746433      0              7.977817       69.579533    
      8800   2.962115       3.4975471      0              7.93855        68.993042    
      8900   3.0242788      3.5539614      0              8.0881645      69.735002    
      9000   3.0199497      3.6643459      0              8.1920586      70.842208    
      9100   3.0113394      3.6419328      0              8.1567362      70.807591    
      9200   2.9467962      3.6633326      0              8.0813687      70.73303     
      9300   2.9657904      3.5841071      0              8.0306205      70.173856    
      9400   2.9769957      3.5553063      0              8.0186194      69.596314    
      9500   3.0030576      3.6037014      0              8.1060883      70.423458    
      9600   3.0531441      3.6317463      0              8.2092263      70.669177    
      9700   3.0431289      3.6355657      0              8.1980301      70.721603    
      9800   2.9790505      3.5686211      0              8.0350149      69.73727     
      9900   2.9532467      3.5297369      0              7.957444       69.55427     
     10000   2.9863844      3.5411244      0              8.0185137      69.33857     
     10100   3.0216966      3.569754       0              8.1000857      69.819628    
     10200   2.9633822      3.6603466      0              8.1032495      71.206343    
     10300   3.0343802      3.5601652      0              8.109513       69.599978    
     10400   3.0338686      3.5427515      0              8.0913323      69.792445    
     10500   2.9433598      3.5961164      0              8.0090004      70.147012    
     10600   2.9768632      3.4631702      0              7.9262846      68.30351     
     10700   2.9496538      3.5680556      0              7.9903759      69.826196    
     10800   2.9925104      3.6882951      0              8.174869       71.35513     
     10900   2.9485791      3.7769521      0              8.1976612      72.192755    
     11000   2.970734       3.6580294      0              8.1119545      70.826729    
     11100   2.9309638      3.6131892      0              8.0074882      70.072474    
     11200   2.9568307      3.5645374      0              7.9976178      69.654299    
     11300   3.0416769      3.6541631      0              8.2144507      70.617078    
     11400   3.0753762      3.6698334      0              8.2806452      70.79173     
     11500   3.0208265      3.6002774      0              8.1293045      69.903695    
     11600   2.9918026      3.5164872      0              8.0019999      69.497394    
     11700   3.0200485      3.4800044      0              8.0078652      68.87566     
     11800   3.0444366      3.5789239      0              8.143349       69.874149    
     11900   3.1325072      3.5846891      0              8.2811555      70.135154    
     12000   3.0799532      3.6080218      0              8.2256958      70.379631    
     12100   3.1046086      3.5012267      0              8.1558658      69.285733    
     12200   2.9945462      3.5862554      0              8.0758815      70.178226    
     12300   3.0122694      3.4950254      0              8.0112232      69.184834    
     12400   2.9600297      3.5666305      0              8.0045071      69.623313    
     12500   3.0530367      3.5825838      0              8.1599027      70.201869    
     12600   3.0813476      3.6480894      0              8.267854       70.815134    
     12700   3.0240558      3.6319388      0              8.1658076      70.558192    
     12800   2.9070587      3.6682805      0              8.0267393      70.762312    
     12900   2.9704536      3.5714604      0              8.0249651      69.870986    
     13000   2.9486719      3.6597719      0              8.0806201      70.725331    
     13100   3.0074023      3.6392664      0              8.1481672      70.9316      
     13200   2.9680395      3.7797957      0              8.2296811      72.315711    
     13300   3.0713355      3.6920619      0              8.2968157      71.691599    
     13400   3.0288405      3.6219937      0              8.163036       70.595203    
     13500   2.9701237      3.5575058      0              8.010516       69.891011    
     13600   2.949119       3.5853608      0              8.0068793      69.881243    
     13700   2.9997078      3.6062238      0              8.1035885      70.374475    
     13800   3.0838062      3.652307       0              8.2757576      71.102419    
     13900   3.0683206      3.6740803      0              8.2743139      71.384508    
     14000   2.9987252      3.5118267      0              8.0077181      69.40213     
     14100   2.9624724      3.549286       0              7.9908247      69.499652    
     14200   3.0050161      3.5830442      0              8.0883675      70.161983    
     14300   3.0264117      3.657857       0              8.1952579      71.004008    
     14400   3.0366487      3.637434       0              8.1901829      70.499575    
     14500   2.9772577      3.5348466      0              7.9985525      69.053014    
     14600   2.8912699      3.5877786      0              7.9225659      69.874374    
     14700   2.9602164      3.5666188      0              8.0047753      70.03682     
     14800   2.9583163      3.6633835      0              8.0986913      70.967006    
     14900   3.002827       3.6211142      0              8.1231554      70.37971     
     15000   3.0722126      3.5036476      0              8.1097163      69.327327    
     15100   3.0478908      3.4944777      0              8.0640816      68.963622    
     15200   2.9765936      3.4091303      0              7.8718407      68.31165     
     15300   2.9030085      3.502365       0              7.8547516      68.80741     
     15400   2.9666947      3.5954352      0              8.0433043      70.002109    
     15500   2.9740973      3.6634425      0              8.1224101      71.106399    
     15600   3.0556804      3.5589733      0              8.1402558      70.074662    
     15700   3.01896        3.5598497      0              8.0860785      70.176292    
     15800   2.9231005      3.5430478      0              7.9255576      69.456024    
     15900   2.9344766      3.4923059      0              7.8918716      68.666623    
     16000   2.9903795      3.6226384      0              8.1060174      70.4509      
     16100   3.0611852      3.5861714      0              8.1757071      70.153476    
     16200   2.9960872      3.6330914      0              8.1250278      70.811612    
     16300   2.9953591      3.5324655      0              8.0233103      69.643143    
     16400   2.8905199      3.6192705      0              7.9529333      70.379409    
     16500   2.9311582      3.6021814      0              7.9967719      69.819411    
     16600   3.0511323      3.6109971      0              8.1854609      70.441414    
     16700   3.1155102      3.5646477      0              8.2356311      70.241017    
     16800   2.9610513      3.6756794      0              8.1150876      71.10925     
     16900   2.9823333      3.5119788      0              7.9832944      69.147522    
     17000   2.9372369      3.5927686      0              7.9964726      70.178166    
     17100   2.9853253      3.5788613      0              8.0546627      70.120272    
     17200   2.9399541      3.7030171      0              8.1107949      71.438934    
     17300   3.0545085      3.5627474      0              8.1422729      69.600893    
     17400   2.9579882      3.6567956      0              8.0916115      71.307985    
     17500   2.9863059      3.4770115      0              7.9542832      68.797624    
     17600   2.9540346      3.5170769      0              7.9459651      69.119893    
     17700   2.9909028      3.6220064      0              8.10617        70.39106     
     17800   3.0896397      3.5596602      0              8.1918568      69.700485    
     17900   2.9781984      3.6821396      0              8.1472558      71.296854    
     18000   2.9585787      3.6320912      0              8.0677924      70.616183    
     18100   2.9744157      3.5287088      0              7.9881538      69.623603    
     18200   2.8325325      3.536843       0              7.7835671      69.352966    
     18300   2.905652       3.4865081      0              7.842858       68.715679    
     18400   3.0050342      3.5362862      0              8.0416366      69.275038    
     18500   3.0158289      3.6125929      0              8.1341274      70.312839    
     18600   3.0769812      3.5598239      0              8.173042       70.189699    
     18700   2.9982894      3.6158575      0              8.1110955      70.821825    
     18800   2.9089719      3.5771625      0              7.9384897      69.984702    
     18900   2.9275619      3.5287732      0              7.9179718      69.429341    
     19000   2.9517741      3.6671328      0              8.092632       70.644366    
     19100   2.9578848      3.7084746      0              8.1431354      71.460303    
     19200   3.0464675      3.5450337      0              8.1125037      69.720198    
     19300   2.9882291      3.5652471      0              8.0454021      69.814488    
     19400   2.905944       3.6146564      0              7.9714441      70.261836    
     19500   2.990538       3.4753156      0              7.9589323      68.943831    
     19600   3.0144331      3.60219        0              8.1216319      70.318245    
     19700   3.0237505      3.6913963      0              8.2248073      71.202423    
     19800   3.0563104      3.5868969      0              8.1691239      70.272304    
     19900   2.993194       3.5130138      0              8.0006125      69.04157     
     20000   2.9576277      3.5175985      0              7.9518739      69.190444    
     20100   3.0123188      3.494896       0              8.0111679      68.925237    
     20200   3.0101587      3.5701744      0              8.0832078      69.906207    
     20300   2.9904595      3.6699206      0              8.1534196      70.880226    
     20400   2.9997057      3.6597806      0              8.1571422      71.100367    
     20500   3.0037976      3.5087589      0              8.0122553      69.374276    
     20600   2.9048336      3.5539073      0              7.9090302      69.595321    
     20700   2.986549       3.5356636      0              8.0132997      69.382925    
     20800   2.9867261      3.6852638      0              8.1631654      71.443322    
     20900   3.0106098      3.6519309      0              8.1656405      70.694461    
     21000   2.9921852      3.6153634      0              8.1014496      70.555909    
     21100   3.0066229      3.5168659      0              8.0245981      69.214734    
     21200   2.9490224      3.4769207      0              7.8982944      68.817293    
     21300   2.8785945      3.4764788      0              7.7922621      68.684861    
     21400   2.955138       3.5425501      0              7.9730927      69.609074    
     21500   3.046578       3.5339308      0              8.1015664      69.68719     
     21600   3.0181933      3.6155837      0              8.1406632      70.771259    
     21700   2.9385739      3.720553       0              8.1262615      71.677044    
     21800   2.9185233      3.6315724      0              8.0072197      70.674939    
     21900   2.9229748      3.5092144      0              7.8915358      69.06938     
     22000   2.9380522      3.590527       0              7.9954534      70.063983    
     22100   2.9258381      3.7953792      0              8.1819934      72.836316    
     22200   2.9728387      3.7085206      0              8.1656013      71.336498    
     22300   2.9500418      3.6462512      0              8.0691532      71.118292    
     22400   2.9875359      3.4875938      0              7.9667095      69.284386    
     22500   2.9967832      3.4657643      0              7.9587441      68.606531    
     22600   2.9846295      3.6970142      0              8.1717724      71.406261    
     22700   3.0572986      3.6582287      0              8.2419374      71.043256    
     22800   2.9758573      3.6728939      0              8.1345003      71.310944    
     22900   2.9761328      3.5412849      0              8.0033043      69.69619     
     23000   3.0162783      3.4805196      0              8.0027278      68.646093    
     23100   2.9449209      3.6369347      0              8.0521591      70.784826    
     23200   3.0336553      3.5417061      0              8.0899672      69.874448    
     23300   3.0211722      3.5772752      0              8.1068207      69.917259    
     23400   3.0128882      3.581868       0              8.0989936      69.890508    
     23500   2.9340451      3.6031268      0              8.0020454      70.219621    
     23600   2.9018666      3.5600503      0              7.9107249      69.700885    
     23700   2.9996833      3.506161       0              8.003489       68.999605    
     23800   3.0918435      3.5313784      0              8.1668792      69.520467    
     23900   3.0368483      3.6299504      0              8.1829986      70.418869    
     24000   2.9712233      3.6408928      0              8.0955516      71.076492    
     24100   2.8744593      3.6630155      0              7.9725991      70.662923    
     24200   2.8083826      3.5778543      0              7.7883712      69.623266    
     24300   2.8881197      3.3911827      0              7.7212469      67.694943    
     24400   2.9691436      3.4943148      0              7.9458555      68.763883    
     24500   2.9755425      3.6034246      0              8.0645591      70.48207     
     24600   2.9810649      3.7002956      0              8.1697095      71.426387    
     24700   3.04832        3.625648       0              8.1958954      70.481152    
     24800   3.0026564      3.5653409      0              8.0671263      69.983354    
     24900   3.0026323      3.4346332      0              7.9363826      68.36817     
     25000   3.0086811      3.4668318      0              7.9776499      68.638228    
     25100   3.0061041      3.5740974      0              8.0810518      69.923589    
     25200   3.0341866      3.5521137      0              8.1011713      70.00862     
     25300   2.9625779      3.6629763      0              8.1046733      70.983585    
     25400   3.047547       3.5210071      0              8.0900956      69.595432    
     25500   2.9147393      3.6666449      0              8.0366191      70.95853     
     25600   2.9274183      3.5862865      0              7.9752698      70.283223    
     25700   2.914742       3.6362806      0              8.0062587      70.687589    
     25800   2.9662922      3.7256268      0              8.1728925      71.993479    
     25900   3.0787143      3.6214486      0              8.237265       70.581005    
     26000   3.0653592      3.5325408      0              8.1283345      69.544727    
     26100   3.0066074      3.486573       0              7.994282       68.743487    
     26200   2.9972474      3.5142839      0              8.0079597      69.193506    
     26300   3.0062539      3.5793387      0              8.0865177      70.019984    
     26400   2.9886895      3.6880086      0              8.1688539      71.266835    
     26500   3.0183324      3.6897281      0              8.2150159      71.258811    
     26600   3.066523       3.4883057      0              8.0858442      69.187817    
     26700   2.9999211      3.4376787      0              7.9353633      68.303287    
     26800   3.0154629      3.46327        0              7.9842557      68.67127     
     26900   3.006282       3.6300029      0              8.137224       70.638536    
     27000   3.0268941      3.6400428      0              8.1781669      70.954397    
     27100   3.0341222      3.5899024      0              8.1388636      70.412434    
     27200   3.0561111      3.5116325      0              8.0935609      69.321841    
     27300   2.9731285      3.5839603      0              8.0414754      70.233686    
     27400   2.9629003      3.5470852      0              7.9892656      69.724196    
     27500   2.9625626      3.5217184      0              7.9633924      69.105811    
     27600   2.9939527      3.5913333      0              8.0800695      70.291695    
     27700   3.0131398      3.6765223      0              8.1940251      71.40694     
     27800   3.0362144      3.6506665      0              8.2027643      70.743428    
     27900   2.9735224      3.562512       0              8.0206177      69.61443     
     28000   3.0062628      3.4164387      0              7.9236311      68.211121    
     28100   2.9260545      3.6106456      0              7.9975842      70.432627    
     28200   3.0008618      3.5958637      0              8.0949584      70.279424    
     28300   2.9981947      3.6368562      0              8.1319523      70.546116    
     28400   2.987569       3.6359677      0              8.1151331      70.912104    
     28500   2.992052       3.5019751      0              7.9878616      69.408724    
     28600   2.8917522      3.4846054      0              7.8201157      68.778825    
     28700   2.9412699      3.5291713      0              7.9389218      69.205884    
     28800   2.9979542      3.5710201      0              8.0657557      69.72626     
     28900   3.0212948      3.5869695      0              8.1166987      70.385515    
     29000   2.9956335      3.6359828      0              8.1272389      70.62755     
     29100   2.9863463      3.5711628      0              8.048495       70.02871     
     29200   2.9763103      3.4350836      0              7.8973691      68.24782     
     29300   2.9694313      3.478355       0              7.9303271      68.430361    
     29400   3.0490644      3.5603743      0              8.1317378      69.890096    
     29500   2.9939479      3.6678186      0              8.1565476      71.012843    
     29600   3.0712246      3.4998254      0              8.1044129      69.201784    
     29700   2.9892243      3.521087       0              8.0027341      69.294766    
     29800   2.925334       3.5259948      0              7.9118533      69.280624    
     29900   2.9682318      3.4821876      0              7.9323613      68.85852     
     30000   2.9746706      3.6719101      0              8.1317373      71.382473    
     30100   2.9694012      3.7499881      0              8.2019151      71.908634    
     30200   3.0824123      3.5193146      0              8.1406754      69.419167    
     30300   2.9409942      3.5687089      0              7.9780461      69.819167    
     30400   2.9334486      3.5369763      0              7.9350007      69.671702    
     30500   2.9720341      3.5885954      0              8.0444698      70.003293    
     30600   2.9864729      3.619889       0              8.0974111      70.392627    
     30700   3.0617332      3.5095962      0              8.0999535      69.179705    
     30800   2.9682545      3.6377723      0              8.08798        70.817798    
     30900   2.9684461      3.6205417      0              8.0710366      71.014906    
     31000   2.9332041      3.6570289      0              8.0546866      70.744132    
     31100   3.0453818      3.5022879      0              8.06813        69.358883    
     31200   2.9836386      3.665108       0              8.1383806      70.98093     
     31300   3.0731468      3.6033631      0              8.2108325      70.595435    
     31400   2.979343       3.6977204      0              8.1645527      71.526759    
     31500   2.9227027      3.5971783      0              7.9790917      70.341554    
     31600   2.9240965      3.5712319      0              7.955235       69.723611    
     31700   3.028566       3.5283456      0              8.0689764      69.524885    
     31800   3.0421714      3.5980386      0              8.1590675      70.559552    
     31900   3.0552562      3.563874       0              8.1445205      69.758447    
     32000   2.9370759      3.6873451      0              8.0908077      71.043429    
     32100   2.9230188      3.638248       0              8.0206354      70.780641    
     32200   2.9530551      3.5068736      0              7.9342934      68.62069     
     32300   2.9981408      3.4080819      0              7.9030971      68.254022    
     32400   2.9591969      3.6433798      0              8.0800077      70.556234    
     32500   3.0717004      3.5826914      0              8.1879921      69.844223    
     32600   3.0904802      3.5146144      0              8.1480712      69.282349    
     32700   2.9857833      3.5385797      0              8.0150677      69.681836    
     32800   2.9057567      3.5337011      0              7.8902078      69.595851    
     32900   2.9293722      3.5523166      0              7.9442294      69.396757    
     33000   3.0460244      3.6078148      0              8.1746205      70.319065    
     33100   3.0340891      3.6582118      0              8.2071232      71.05744     
     33200   2.916561       3.7325791      0              8.1052844      71.903238    
     33300   2.9522439      3.5580113      0              7.9842149      69.693565    
     33400   2.9073101      3.6282943      0              7.9871302      70.526945    
     33500   2.9857323      3.7335101      0              8.2099218      71.919896    
     33600   3.0417636      3.7162235      0              8.2766411      71.543759    
     33700   3.0719587      3.5497826      0              8.1554707      69.442428    
     33800   3.0206544      3.5179338      0              8.046703       69.028271    
     33900   2.9441661      3.6114398      0              8.0255326      70.169657    
     34000   3.0485189      3.5234627      0              8.0940082      69.208531    
     34100   3.1025735      3.6776502      0              8.3292381      71.382806    
     34200   3.1330677      3.62265        0              8.3199568      70.618259    
     34300   3.0564163      3.6055776      0              8.1879635      70.45376     
     34400   3.0404003      3.5312455      0              8.0896191      69.592507    
     34500   2.9891001      3.5517292      0              8.0331901      69.376056    
     34600   2.9990327      3.540779       0              8.0371315      69.357569    
     34700   3.0293057      3.6461243      0              8.1878641      70.719131    
     34800   3.0486777      3.7264688      0              8.2972524      71.943129    
     34900   3.0316943      3.6222802      0              8.1676012      70.926692    
     35000   2.9662027      3.5971764      0              8.0443079      70.096301    
     35100   2.9061574      3.6813903      0              8.0384979      71.082126    
     35200   2.9516283      3.6601467      0              8.0854273      71.097888    
     35300   2.9709055      3.7269634      0              8.1811457      71.641857    
     35400   3.1531746      3.6389937      0              8.3664461      71.008044    
     35500   3.0875513      3.6755949      0              8.3046605      71.135883    
     35600   2.9106668      3.7334252      0              8.0972936      71.624511    
     35700   2.9577904      3.6204049      0              8.0549243      70.385322    
     35800   2.9912129      3.5820312      0              8.0666598      70.247223    
     35900   2.9939805      3.6459852      0              8.1347631      70.792611    
     36000   3.0865405      3.6123589      0              8.239909       70.803248    
     36100   3.0604621      3.6546195      0              8.243071       70.822734    
     36200   2.9794196      3.5605419      0              8.0274891      69.446616    
     36300   2.935447       3.5677035      0              7.9687239      69.816       
     36400   2.9370721      3.6434377      0              8.0468946      70.586966    
     36500   3.0434703      3.6203344      0              8.1833107      70.562308    
     36600   3.0750765      3.6017398      0              8.2121023      70.075622    
     36700   3.0164367      3.548829       0              8.0712747      69.35075     
     36800   2.9841448      3.3786746      0              7.8527061      67.636673    
     36900   2.9310983      3.5425962      0              7.9370969      69.696958    
     37000   2.9924853      3.6206475      0              8.1071837      70.429598    
     37100   3.0307249      3.6459356      0              8.1898032      70.90548     
     37200   3.0720369      3.5520294      0              8.1578346      69.911639    
     37300   3.0255635      3.4603055      0              7.9964348      68.795351    
     37400   2.9425704      3.5079915      0              7.919692       69.003138    
     37500   2.9840303      3.5427864      0              8.0166463      69.538188    
     37600   2.9745208      3.6394531      0              8.0990557      70.551003    
     37700   3.0633833      3.5115937      0              8.1044249      69.567089    
     37800   2.9346535      3.6928436      0              8.0926746      71.224555    
     37900   3.0194598      3.5507746      0              8.0777528      69.466914    
     38000   2.9552329      3.6168734      0              8.0475582      70.161359    
     38100   2.961887       3.60048        0              8.0411412      70.056815    
     38200   2.9645567      3.6390599      0              8.0837236      70.541589    
     38300   2.9834017      3.7063282      0              8.1792457      71.435994    
     38400   3.0754423      3.6136665      0              8.2245774      70.576934    
     38500   3.0222756      3.5776034      0              8.1088032      69.775154    
     38600   2.9912809      3.4609521      0              7.9456826      68.528627    
     38700   2.9873371      3.5049676      0              7.9837854      69.121343    
     38800   3.0527081      3.532118       0              8.1089442      69.569227    
     38900   3.0918744      3.5293428      0              8.1648898      69.281817    
     39000   3.0169373      3.6087978      0              8.1319941      70.379498    
     39100   3.0011715      3.5940882      0              8.0936473      69.963783    
     39200   3.0584594      3.4497742      0              8.0352232      68.468028    
     39300   2.9220749      3.5453939      0              7.9263662      69.095468    
     39400   2.9128972      3.4790527      0              7.846265       68.865234    
     39500   2.9835111      3.5493823      0              8.0224637      69.239542    
     39600   3.0414731      3.5797508      0              8.1397328      70.324421    
     39700   2.9933217      3.663747       0              8.1515372      71.237777    
     39800   3.0168502      3.5719497      0              8.0950154      69.707055    
     39900   2.833507       3.6812105      0              7.9293957      70.827856    
     40000   2.8648445      3.5770277      0              7.8721962      69.674236    
     40100   2.9446905      3.6633118      0              8.0781909      70.93817     
     40200   2.9714971      3.7021865      0              8.1572558      71.288172    
     40300   2.9708326      3.6629573      0              8.1170302      71.170307    
     40400   3.0316239      3.4838448      0              8.0290601      68.978329    
     40500   2.922638       3.5859365      0              7.9677529      69.973129    
     40600   2.9325344      3.6411074      0              8.0377611      70.426913    
     40700   3.0408159      3.6643509      0              8.2233476      71.284958    
     40800   2.9772146      3.7684613      0              8.2321026      72.345598    
     40900   2.9834         3.6190661      0              8.091981       70.152482    
     41000   2.985139       3.5224413      0              7.9979635      69.411767    
     41100   3.0153678      3.5021942      0              8.0230375      68.878113    
     41200   3.0365809      3.5259357      0              8.0785829      69.279671    
     41300   3.0568799      3.5525822      0              8.1356632      70.202065    
     41400   3.1292362      3.5104567      0              8.2020192      69.364858    
     41500   3.0111102      3.7544402      0              8.2689001      72.167266    
     41600   3.0597519      3.5756752      0              8.163062       70.002571    
     41700   3.0190093      3.4793503      0              8.005653       69.160624    
     41800   2.9321132      3.5927319      0              7.9887542      69.997669    
     41900   2.9264732      3.7084289      0              8.0959953      71.079622    
     42000   3.1256863      3.5929945      0              8.2792346      70.280734    
     42100   3.0067797      3.7581138      0              8.2660811      72.36643     
     42200   3.0097027      3.6729607      0              8.1853104      70.885758    
     42300   3.0176167      3.5685407      0              8.0927555      69.461615    
     42400   2.9723613      3.5484051      0              8.00477        69.494991    
     42500   2.9951323      3.4954382      0              7.985943       68.990642    
     42600   3.0010301      3.6473559      0              8.146703       70.671418    
     42700   2.9991521      3.7740237      0              8.2705552      72.530348    
     42800   3.1193256      3.5082359      0              8.1849397      69.739404    
     42900   2.9992406      3.5596827      0              8.0563468      69.64977     
     43000   3.0194472      3.5069458      0              8.0339051      68.884745    
     43100   2.9482732      3.640478       0              8.0607284      70.575079    
     43200   3.0512911      3.5388714      0              8.1135731      69.441359    
     43300   3.0704153      3.6183099      0              8.221684       70.756623    
     43400   3.1411385      3.6560253      0              8.3654325      71.417714    
     43500   3.109674       3.5658535      0              8.2280869      70.031412    
     43600   2.9831821      3.6001614      0              8.0727495      70.304969    
     43700   2.9359185      3.6499069      0              8.0516343      70.739952    
     43800   3.0133562      3.560987       0              8.0788143      69.930445    
     43900   3.0518878      3.6020942      0              8.1776906      70.644405    
     44000   3.001792       3.7857638      0              8.2862532      72.406938    
     44100   3.1080372      3.5467047      0              8.2064841      69.615115    
     44200   2.9267613      3.6174818      0              8.0054801      70.635096    
     44300   2.912027       3.6405447      0              8.0064524      70.382409    
     44400   3.0019684      3.5947644      0              8.0955183      70.305985    
     44500   3.0520829      3.6409683      0              8.2168573      71.264096    
     44600   3.0048615      3.7689362      0              8.2740277      72.214965    
     44700   2.9434102      3.6976726      0              8.110632       71.098868    
     44800   2.9528867      3.5456424      0              7.9728098      69.559439    
     44900   3.0096899      3.4794         0              7.9917304      68.767083    
     45000   3.0117674      3.6219666      0              8.1374118      70.089624    
     45100   3.0742293      3.6179633      0              8.2270556      70.679051    
     45200   2.9211347      3.7935015      0              8.173064       71.863956    
     45300   2.9940526      3.6139441      0              8.1028301      69.966434    
     45400   2.9817965      3.6122338      0              8.0827446      70.352365    
     45500   2.9875496      3.6071698      0              8.0863061      70.255268    
     45600   3.0119732      3.5707316      0              8.0864853      69.967255    
     45700   3.0050352      3.597384       0              8.1027358      70.175319    
     45800   2.9910291      3.6392714      0              8.1236244      70.551803    
     45900   3.0374764      3.5628469      0              8.1168368      69.617422    
     46000   2.9831119      3.5872577      0              8.0597406      69.715066    
     46100   2.9722406      3.5291138      0              7.9852978      69.154511    
     46200   3.0128597      3.4497297      0              7.9668126      68.55656     
     46300   3.0342931      3.5821065      0              8.1313237      70.127481    
     46400   3.0721009      3.6319268      0              8.2378281      70.823416    
     46500   2.9987109      3.6758952      0              8.1717653      70.926026    
     46600   2.9379229      3.6417465      0              8.046479       70.664426    
     46700   2.9589107      3.5954225      0              8.0316214      69.808429    
     46800   2.9745469      3.6050809      0              8.0647226      70.207135    
     46900   2.9949282      3.6285278      0              8.1187265      70.358197    
     47000   2.9916482      3.6624008      0              8.1476819      71.354766    
     47100   2.9629749      3.7264992      0              8.1687914      71.983807    
     47200   3.0003261      3.6076317      0              8.1059232      70.701071    
     47300   2.9393028      3.5829938      0              7.9897951      69.935409    
     47400   2.9672365      3.5075074      0              7.9561889      69.183698    
     47500   3.0121821      3.6045494      0              8.1206164      70.498838    
     47600   3.0778242      3.6287546      0              8.2432366      71.00957     
     47700   3.0749328      3.5763968      0              8.1865438      70.306158    
     47800   3.0057193      3.5770258      0              8.0834032      70.087713    
     47900   2.965186       3.5897562      0              8.0353634      70.069433    
     48000   2.9800261      3.5814029      0              8.0492595      70.088066    
     48100   3.0462692      3.5084165      0              8.0755891      68.917864    
     48200   2.995617       3.5987408      0              8.0899722      70.440404    
     48300   2.9924405      3.6225814      0              8.1090505      70.22314     
     48400   2.9887053      3.6546596      0              8.1355285      70.928165    
     48500   3.083529       3.5602585      0              8.1832935      69.916641    
     48600   3.0218362      3.6226431      0              8.1531841      70.406973    
     48700   2.9967837      3.5415774      0              8.034558       69.536433    
     48800   2.9725427      3.5013414      0              7.9579782      69.366383    
     48900   2.994365       3.5581513      0              8.0475056      69.632114    
     49000   3.0397235      3.6919245      0              8.2492835      71.407636    
     49100   3.0269         3.6836446      0              8.2217777      71.008271    
     49200   2.9942918      3.6166375      0              8.105882       70.372764    
     49300   2.9926246      3.551304       0              8.0380491      69.649703    
     49400   2.9563293      3.610502       0              8.0428307      70.392778    
     49500   3.0066987      3.5816414      0              8.0894872      70.367177    
     49600   3.0361935      3.5583569      0              8.1104234      70.074713    
     49700   3.0109512      3.5940801      0              8.1083017      70.183825    
     49800   2.9402381      3.67529        0              8.0834937      70.736555    
     49900   2.9910258      3.5644737      0              8.0488217      70.043531    
     50000   2.9439059      3.5404897      0              7.9541924      69.651304    
Loop time of 13.6216 on 1 procs for 50000 steps with 2048 atoms

Performance: 634288.116 tau/day, 3670.649 timesteps/s, 7.517 Matom-step/s
99.7% CPU use with 1 MPI tasks x 1 OpenMP threads

MPI task timing breakdown:
Section |  min time  |  avg time  |  max time  |%varavg| %total
---------------------------------------------------------------
Pair    | 8.2965     | 8.2965     | 8.2965     |   0.0 | 60.91
Neigh   | 3.3098     | 3.3098     | 3.3098     |   0.0 | 24.30
Comm    | 0.43181    | 0.43181    | 0.43181    |   0.0 |  3.17
Output  | 0.006922   | 0.006922   | 0.006922   |   0.0 |  0.05
Modify  | 1.258      | 1.258      | 1.258      |   0.0 |  9.24
Other   |            | 0.3186     |            |       |  2.34

Nlocal:           2048 ave        2048 max        2048 min
Histogram: 1 0 0 0 0 0 0 0 0 0
Nghost:           1399 ave        1399 max        1399 min
Histogram: 1 0 0 0 0 0 0 0 0 0
Neighs:          12561 ave       12561 max       12561 min
Histogram: 1 0 0 0 0 0 0 0 0 0

Total # of neighbors = 12561
Ave neighs/atom = 6.1333008
Neighbor list builds = 4514
Dangerous builds = 0

unfix 1
dump           1 all atom ${run_steps} 3dWCA_T${final_temperature}_d${density}_N${run_steps}.lammpstrj
dump           1 all atom 100000 3dWCA_T${final_temperature}_d${density}_N${run_steps}.lammpstrj
dump           1 all atom 100000 3dWCA_T0.1_d${density}_N${run_steps}.lammpstrj
dump           1 all atom 100000 3dWCA_T0.1_d1.4_N${run_steps}.lammpstrj
dump           1 all atom 100000 3dWCA_T0.1_d1.4_N100000.lammpstrj
dump           2 all dcd ${thermo_time} 3dWCA_T${final_temperature}_d${density}_N${run_steps}.dcd
dump           2 all dcd 100 3dWCA_T${final_temperature}_d${density}_N${run_steps}.dcd
dump           2 all dcd 100 3dWCA_T0.1_d${density}_N${run_steps}.dcd
dump           2 all dcd 100 3dWCA_T0.1_d1.4_N${run_steps}.dcd
dump           2 all dcd 100 3dWCA_T0.1_d1.4_N100000.dcd
fix 1 all nvt temp ${initial_temperature} ${final_temperature} ${tau}
fix 1 all nvt temp 3 ${final_temperature} ${tau}
fix 1 all nvt temp 3 0.1 ${tau}
fix 1 all nvt temp 3 0.1 0.2

run ${run_steps}
run 100000
Generated 0 of 0 mixed pair_coeff terms from geometric mixing rule
Per MPI rank memory allocation (min/avg/max) = 3.296 | 3.296 | 3.296 Mbytes
   Step          Temp          E_pair         E_mol          TotEng         Press     
     50000   2.9439059      3.5404897      0              7.9541924      69.651304    
     50100   2.932113       3.6202236      0              8.0162456      70.294948    
     50200   2.9734034      3.743191       0              8.2011183      71.97879     
     50300   3.0397918      3.6542284      0              8.2116897      70.835967    
     50400   3.0348581      3.5786689      0              8.1287333      70.218988    
     50500   2.9419858      3.6382161      0              8.0490401      70.622276    
     50600   2.9557235      3.5625406      0              7.993961       69.739788    
     50700   2.9228478      3.592273       0              7.9744039      69.902512    
     50800   3.0277218      3.5070795      0              8.0464447      69.111057    
     50900   3.0112386      3.6339643      0              8.1486167      70.550945    
     51000   3.0052011      3.6124937      0              8.1180943      70.683349    
     51100   2.9800459      3.4781369      0              7.946023       68.808086    
     51200   2.9832465      3.4129698      0              7.8856547      67.906944    
     51300   2.9867484      3.4645129      0              7.9424479      68.414729    
     51400   2.9676609      3.5622665      0              8.0115842      69.589034    
     51500   2.9759086      3.5501614      0              8.0118446      69.672928    
     51600   2.934115       3.59074        0              7.9897634      70.037939    
     51700   3.0010442      3.4465982      0              7.9459665      68.233506    
     51800   2.947867       3.4333247      0              7.8529661      68.058017    
     51900   2.8598157      3.4295567      0              7.7171857      68.163674    
     52000   2.8812482      3.4620738      0              7.7818358      68.500367    
     52100   3.003861       3.4678874      0              7.9714788      68.675681    
     52200   3.0015745      3.5011482      0              8.0013115      68.906378    
     52300   2.9252625      3.5519042      0              7.9376555      69.588234    
     52400   2.9008357      3.4518098      0              7.8009387      67.974088    
     52500   2.8344887      3.471597       0              7.7212541      68.559879    
     52600   2.928796       3.4638631      0              7.854912       68.802506    
     52700   2.9663165      3.5718249      0              8.0191271      69.959571    
     52800   2.9798732      3.5125048      0              7.9801321      69.436896    
     52900   2.8629522      3.5377257      0              7.8300571      69.511396    
     53000   2.9115436      3.404284       0              7.7694668      67.913454    
     53100   2.9602743      3.3729943      0              7.8112375      67.589985    
     53200   2.894574       3.6197843      0              7.9595252      70.434603    
     53300   3.0256976      3.6241786      0              8.1605089      70.681429    
     53400   2.9660947      3.6199497      0              8.0669194      70.336448    
     53500   2.9334642      3.5202544      0              7.9183022      69.238026    
     53600   2.9181593      3.4042643      0              7.7793659      67.973096    
     53700   2.8402185      3.4650705      0              7.7233181      68.491494    
     53800   2.9018911      3.4071389      0              7.7578501      67.906312    
     53900   2.9035467      3.5722204      0              7.9254138      69.914997    
     54000   2.9891406      3.5069398      0              7.9884614      69.151773    
     54100   2.9246441      3.4366777      0              7.8215017      68.131751    
     54200   2.8155514      3.5161029      0              7.7373679      69.091789    
     54300   2.929425       3.358077       0              7.7500689      67.234066    
     54400   2.8938025      3.431638       0              7.7702223      68.190454    
     54500   2.8485051      3.5162254      0              7.7868967      68.953049    
     54600   2.8496596      3.4856336      0              7.7580357      68.672981    
     54700   2.8226005      3.4182416      0              7.6500751      67.597756    
     54800   2.7723272      3.4275143      0              7.5839747      67.790857    
     54900   2.8430256      3.4077989      0              7.670255       67.841424    
     55000   2.946695       3.4319166      0              7.8498008      68.507216    
     55100   2.9503616      3.3985022      0              7.8218837      67.716571    
     55200   2.8301072      3.4643359      0              7.7074239      68.381053    
     55300   2.8515125      3.3779441      0              7.6531244      67.647441    
     55400   2.8383145      3.3997602      0              7.6551532      67.550673    
     55500   2.8849672      3.3486449      0              7.6739827      66.916421    
     55600   2.8170696      3.4615126      0              7.6850537      68.325726    
     55700   2.8951953      3.3735218      0              7.7141943      67.354249    
     55800   2.8595916      3.4045872      0              7.6918802      68.016141    
     55900   2.7900068      3.4162598      0              7.5992265      67.865152    
     56000   2.7948213      3.333092       0              7.523277       67.048533    
     56100   2.8241823      3.309651       0              7.5438559      66.819587    
     56200   2.864442       3.429958       0              7.724523       67.851423    
     56300   2.8929428      3.4350255      0              7.7723209      67.844097    
     56400   2.9041621      3.3073967      0              7.6615128      66.64358     
     56500   2.7784256      3.4124024      0              7.5780059      67.632303    
     56600   2.8032513      3.3620568      0              7.5648806      67.064017    
     56700   2.8001696      3.3809308      0              7.5791343      67.46358     
     56800   2.8587615      3.3262356      0              7.6122841      66.617942    
     56900   2.8558926      3.3866527      0              7.6683999      67.563006    
     57000   2.7252531      3.5435081      0              7.6293917      69.521726    
     57100   2.754196       3.3547997      0              7.4840764      66.874492    
     57200   2.7279633      3.3337938      0              7.4237407      66.739556    
     57300   2.8246642      3.264334       0              7.4992615      66.301028    
     57400   2.8637526      3.4017519      0              7.6952834      67.637371    
     57500   2.8679733      3.3828727      0              7.6827321      67.637672    
     57600   2.8573816      3.3011503      0              7.5851298      66.35191     
     57700   2.8355797      3.2311583      0              7.4824511      65.459464    
     57800   2.7333716      3.3343616      0              7.4324171      67.031578    
     57900   2.8017845      3.243744       0              7.4443686      65.999914    
     58000   2.7911823      3.4126666      0              7.5973957      67.798938    
     58100   2.8079435      3.4537534      0              7.6636121      68.748896    
     58200   2.7692805      3.356826       0              7.5087186      67.083775    
     58300   2.7701253      3.2678938      0              7.4210527      65.77437     
     58400   2.7826466      3.2291358      0              7.4010677      65.4549      
     58500   2.787535       3.2521876      0              7.4314485      65.746339    
     58600   2.7792716      3.3842165      0              7.5510883      67.135914    
     58700   2.8353732      3.3972358      0              7.648219       67.549623    
     58800   2.7358331      3.3819268      0              7.4836726      67.274344    
     58900   2.717813       3.3059941      0              7.380723       66.152288    
     59000   2.6850489      3.338133       0              7.3637398      66.594589    
     59100   2.7219446      3.2993062      0              7.3802294      66.226809    
     59200   2.7925933      3.2583007      0              7.4451453      65.705307    
     59300   2.813757       3.3117483      0              7.5303228      66.538794    
     59400   2.7722643      3.3295544      0              7.4859204      66.533051    
     59500   2.7203361      3.2252288      0              7.3037406      65.092678    
     59600   2.6642806      3.2748373      0              7.2693068      65.816893    
     59700   2.7002436      3.2766758      0              7.3250634      66.169376    
     59800   2.7370313      3.3518703      0              7.4554126      66.877425    
     59900   2.8402342      3.311177       0              7.569448       66.632025    
     60000   2.7493576      3.3437989      0              7.4658216      66.853942    
     60100   2.7364342      3.1744721      0              7.2771193      64.752549    
     60200   2.6219686      3.2864486      0              7.217481       65.766511    
     60300   2.6617508      3.2689698      0              7.2596465      65.743158    
     60400   2.7379769      3.2766698      0              7.3816298      66.250598    
     60500   2.7419154      3.3187661      0              7.4296311      66.613588    
     60600   2.6644055      3.2526685      0              7.2473253      65.47666     
     60700   2.6815939      3.1307527      0              7.1511795      63.86172     
     60800   2.6342953      3.2509749      0              7.2004885      65.524149    
     60900   2.7227573      3.2348411      0              7.3169829      65.687723    
     61000   2.7180521      3.2844516      0              7.3595389      66.051186    
     61100   2.6576038      3.2123767      0              7.1968359      65.441736    
     61200   2.6271864      3.1266724      0              7.0655278      63.890417    
     61300   2.6281642      3.2099408      0              7.1502622      65.011126    
     61400   2.6854928      3.2399108      0              7.2661831      65.371593    
     61500   2.6632375      3.299488       0              7.2923936      66.008775    
     61600   2.7172568      3.1147627      0              7.1886576      64.198133    
     61700   2.5864552      3.1456063      0              7.0233947      64.168648    
     61800   2.6396509      3.113271       0              7.070814       63.656247    
     61900   2.6634744      3.1746668      0              7.1679276      64.715871    
     62000   2.7600022      3.0874759      0              7.2254578      63.785589    
     62100   2.6995458      3.1652822      0              7.2126238      64.309964    
     62200   2.6688022      3.0822883      0              7.0835369      63.701854    
     62300   2.5615902      3.0723047      0              6.9128139      63.452353    
     62400   2.5935059      3.1087481      0              6.9971074      63.858071    
     62500   2.5946198      3.231393       0              7.1214224      65.417511    
     62600   2.6937998      3.1381414      0              7.176868       64.169115    
     62700   2.6416625      3.1963692      0              7.1569281      65.248797    
     62800   2.5997546      3.1106332      0              7.008361       63.695318    
     62900   2.5704857      3.0583855      0              6.9122313      63.213403    
     63000   2.5976908      3.1037924      0              6.998426       63.559778    
     63100   2.6194357      3.151879       0              7.079114       64.46245     
     63200   2.6799206      3.0877869      0              7.105705       63.676061    
     63300   2.6119465      3.1689103      0              7.084917       64.263167    
     63400   2.6468614      3.0070372      0              6.9753907      62.671196    
     63500   2.5256545      3.0653383      0              6.8519702      62.814455    
     63600   2.5965672      3.0441007      0              6.9370497      62.88506     
     63700   2.6338933      3.1434193      0              7.0923301      64.285153    
     63800   2.6546299      3.1029921      0              7.0829926      63.797414    
     63900   2.5748224      3.1468923      0              7.0072401      64.514545    
     64000   2.5731975      3.0639582      0              6.9218698      63.104328    
     64100   2.5388096      3.0798928      0              6.8862477      63.630311    
     64200   2.6123979      3.1026226      0              7.0193061      63.857127    
     64300   2.5930323      3.2428088      0              7.130458       65.838849    
     64400   2.5798138      3.2039678      0              7.0717991      64.866665    
     64500   2.6064861      3.0305131      0              6.9383332      63.046594    
     64600   2.6137882      2.9952985      0              6.9140665      62.53947     
     64700   2.5779527      3.075307       0              6.9403479      63.617673    
     64800   2.6153745      3.055276       0              6.9764223      63.252914    
     64900   2.569342       3.1869828      0              7.0391139      64.946856    
     65000   2.6604201      3.11395        0              7.1026316      64.093917    
     65100   2.5364566      3.1840869      0              6.9869141      64.784136    
     65200   2.5092761      3.100095       0              6.8621712      63.235629    
     65300   2.5559329      3.013375       0              6.8454023      62.428077    
     65400   2.5469272      3.0912184      0              6.9097438      63.879626    
     65500   2.6461786      3.1072311      0              7.0745609      63.831344    
     65600   2.6265839      3.155141       0              7.0930931      64.458058    
     65700   2.5308884      3.1005218      0              6.8950007      63.735647    
     65800   2.5844828      2.981613       0              6.8564443      62.314024    
     65900   2.522456       3.0629708      0              6.8448073      63.184219    
     66000   2.521828       3.0693968      0              6.8502917      63.227453    
     66100   2.5704688      3.0261002      0              6.8799207      62.623352    
     66200   2.5386803      3.0904962      0              6.8966574      63.416768    
     66300   2.5639349      3.008733       0              6.8527575      62.840919    
     66400   2.486172       3.0152184      0              6.7426555      62.380651    
     66500   2.4510782      3.0185334      0              6.6933556      62.405399    
     66600   2.5115725      3.0488145      0              6.8143336      63.157756    
     66700   2.5233343      3.1535512      0              6.9367044      63.919554    
     66800   2.5693697      3.0312601      0              6.8834328      63.039304    
     66900   2.4858007      3.0535271      0              6.7804075      63.042646    
     67000   2.5301773      2.9467818      0              6.7401946      61.79893     
     67100   2.4868727      3.0219102      0              6.7503977      62.687398    
     67200   2.4825214      3.0469148      0              6.7688787      62.797175    
     67300   2.4425552      3.1108625      0              6.7729063      63.466001    
     67400   2.4962326      3.0239623      0              6.7664828      62.237736    
     67500   2.4968312      3.0071634      0              6.7505814      62.197675    
     67600   2.4661831      3.0217833      0              6.7192517      62.392521    
     67700   2.4661298      2.9102184      0              6.6076068      61.062201    
     67800   2.4162045      2.9004031      0              6.5229401      61.0947      
     67900   2.5117881      2.8780907      0              6.6439332      60.531345    
     68000   2.462759       3.0546151      0              6.7469498      63.087546    
     68100   2.4890515      3.0097607      0              6.7415149      62.237802    
     68200   2.3867075      3.0912419      0              6.6695551      63.555155    
     68300   2.4506173      2.8876048      0              6.5617358      60.603398    
     68400   2.3729293      2.9187719      0              6.4764278      61.019715    
     68500   2.3834446      2.9582116      0              6.5316329      61.407124    
     68600   2.3953329      3.1129735      0              6.7042185      63.436061    
     68700   2.5251744      2.9543546      0              6.7402667      61.499611    
     68800   2.4658517      2.968521       0              6.6654924      61.653694    
     68900   2.4310303      2.9046499      0              6.5494148      60.914874    
     69000   2.3985174      2.9266909      0              6.5227103      61.019827    
     69100   2.4601966      2.9684341      0              6.6569271      62.053151    
     69200   2.5032485      3.0367879      0              6.7898273      62.81763     
     69300   2.4948387      2.9536057      0              6.6940365      61.877924    
     69400   2.4329751      2.9281777      0              6.5758584      61.299989    
     69500   2.4146519      2.9055573      0              6.5257666      61.1364      
     69600   2.4267464      2.9148574      0              6.5531996      60.829436    
     69700   2.4848793      2.9708825      0              6.6963815      62.153663    
     69800   2.4945955      3.0299887      0              6.7700548      62.828317    
     69900   2.4803174      2.9327995      0              6.6514589      61.462633    
     70000   2.4268685      2.9360994      0              6.5746246      61.378368    
     70100   2.428359       2.8857524      0              6.5265123      60.91424     
     70200   2.3849156      2.9093791      0              6.4850056      60.62264     
     70300   2.3624207      2.9110328      0              6.4529337      61.179957    
     70400   2.3511787      2.9515062      0              6.4765523      61.62187     
     70500   2.4577985      2.9009161      0              6.5858137      61.039522    
     70600   2.4511008      2.9521183      0              6.6269743      61.895166    
     70700   2.3652403      2.9641986      0              6.5103267      61.799832    
     70800   2.3555504      2.8658255      0              6.3974257      60.478028    
     70900   2.3171336      2.9455441      0              6.4195474      61.064147    
     71000   2.3871302      2.9126833      0              6.4916303      61.089291    
     71100   2.4175606      2.9174349      0              6.5420052      61.047624    
     71200   2.4297325      2.8723377      0              6.5151568      60.461681    
     71300   2.3215189      2.8806593      0              6.3612374      60.65827     
     71400   2.3947312      2.7352639      0              6.3256068      58.938023    
     71500   2.3564082      2.8857916      0              6.418678       60.561464    
     71600   2.3693122      2.9670385      0              6.5192714      61.742999    
     71700   2.3893732      2.9207107      0              6.5030204      61.057653    
     71800   2.3566265      2.8864983      0              6.4197121      60.60333     
     71900   2.3425681      2.8813184      0              6.3934548      60.30921     
     72000   2.3135131      2.9185344      0              6.3871096      61.060577    
     72100   2.3820574      2.8104535      0              6.381795       59.522389    
     72200   2.3658565      2.833949       0              6.3810009      60.07243     
     72300   2.3303413      2.8713374      0              6.3651426      60.330371    
     72400   2.313814       2.8634718      0              6.3324981      60.212858    
     72500   2.3270373      2.8204749      0              6.3093264      59.756042    
     72600   2.2972244      2.8672083      0              6.3113623      60.308793    
     72700   2.3159997      2.9091309      0              6.3814342      60.875704    
     72800   2.3599073      2.9151495      0              6.453282       60.863996    
     72900   2.3769652      2.8309665      0              6.3946734      60.060595    
     73000   2.3125135      2.7699855      0              6.237062       58.800835    
     73100   2.3058463      2.7739039      0              6.2309846      59.064453    
     73200   2.3247863      2.8161669      0              6.3016436      59.634949    
     73300   2.3255993      2.8963863      0              6.3830818      60.64422     
     73400   2.3749038      2.8672599      0              6.4278762      60.392221    
     73500   2.339682       2.8275639      0              6.3353733      59.756237    
     73600   2.3039725      2.7486584      0              6.2029297      59.085427    
     73700   2.2791499      2.7628418      0              6.1798974      59.050661    
     73800   2.3329764      2.7549053      0              6.2526613      58.841788    
     73900   2.3308543      2.8663028      0              6.360877       60.581837    
     74000   2.3456258      2.8329994      0              6.3497201      59.875294    
     74100   2.2268826      2.8110745      0              6.1497673      59.522917    
     74200   2.2729091      2.7389874      0              6.1466863      58.444337    
     74300   2.2502123      2.8463382      0              6.2200085      59.991366    
     74400   2.2866675      2.8597215      0              6.288048       60.498072    
     74500   2.3149623      2.7975348      0              6.2682827      59.194309    
     74600   2.2741637      2.6929693      0              6.1025492      58.027658    
     74700   2.2586112      2.6871026      0              6.0733652      57.895445    
     74800   2.2656241      2.7484929      0              6.1452697      58.852884    
     74900   2.2599117      2.8258221      0              6.2140345      59.693926    
     75000   2.2741591      2.8025592      0              6.2121322      59.401688    
     75100   2.3134463      2.7133123      0              6.1817873      58.040236    
     75200   2.3370668      2.6428616      0              6.1467501      57.275133    
     75300   2.1891033      2.8295995      0              6.1116511      59.518227    
     75400   2.2044975      2.7309575      0              6.0360892      58.320992    
     75500   2.2104988      2.6176265      0              5.9317557      56.951       
     75600   2.2385146      2.6522887      0              6.008421       57.523913    
     75700   2.2513164      2.7590794      0              6.1344051      58.727003    
     75800   2.3049748      2.6913335      0              6.1471075      58.131453    
     75900   2.2847832      2.6764135      0              6.1019148      57.868226    
     76000   2.1965279      2.698607       0              5.9917901      58.326626    
     76100   2.2118895      2.6059177      0              5.9221319      56.896688    
     76200   2.2576995      2.6815233      0              6.0664189      57.917745    
     76300   2.2501909      2.7913772      0              6.1650154      59.47702     
     76400   2.2861777      2.6832603      0              6.1108525      58.000272    
     76500   2.2060804      2.6943423      0              6.0018471      58.085302    
     76600   2.1535113      2.7328872      0              5.9615769      58.36344     
     76700   2.2335921      2.6576458      0              6.006398       57.688306    
     76800   2.2868126      2.7552702      0              6.1838143      58.918154    
     76900   2.2916621      2.7463841      0              6.1821987      58.483281    
     77000   2.2373534      2.7295602      0              6.0839516      58.266943    
     77100   2.1624778      2.7569618      0              5.9990946      58.676867    
     77200   2.2268111      2.6103088      0              5.9488944      56.639132    
     77300   2.1788486      2.6676275      0              5.9343045      57.621882    
     77400   2.2588054      2.6369947      0              6.0235483      57.46652     
     77500   2.25512        2.7437703      0              6.1247986      58.801066    
     77600   2.2641287      2.6544941      0              6.0490288      57.336298    
     77700   2.1928753      2.645348       0              5.9330549      57.284553    
     77800   2.1230041      2.7300482      0              5.9129995      58.387183    
     77900   2.2214989      2.597893       0              5.9285143      56.854297    
     78000   2.2134727      2.66243        0              5.9810179      57.725056    
     78100   2.2584111      2.6918282      0              6.0777907      57.89351     
     78200   2.2556855      2.6520406      0              6.0339166      57.741112    
     78300   2.201031       2.5843562      0              5.8842907      56.787545    
     78400   2.1141509      2.684173       0              5.8538509      58.071085    
     78500   2.1634665      2.6420491      0              5.8856643      57.145152    
     78600   2.1812022      2.6855181      0              5.9557239      57.757289    
     78700   2.2214992      2.7146743      0              6.045296       58.146486    
     78800   2.1765641      2.7132256      0              5.9764775      58.177823    
     78900   2.1485424      2.6087575      0              5.8299975      56.886393    
     79000   2.0691256      2.7047565      0              5.8069294      57.626977    
     79100   2.1449294      2.6141106      0              5.8299338      56.679206    
     79200   2.1997683      2.6106302      0              5.9086715      57.126638    
     79300   2.1876212      2.6952734      0              5.9751029      58.274854    
     79400   2.1907947      2.588237       0              5.8728244      56.498564    
     79500   2.0828044      2.6289717      0              5.7516529      56.93778     
     79600   2.1180499      2.580927       0              5.7564505      56.496271    
     79700   2.1290511      2.6233974      0              5.8154146      56.773151    
     79800   2.211895       2.5969294      0              5.9131519      56.822057    
     79900   2.1664794      2.6752257      0              5.923358       57.865634    
     80000   2.14049        2.5362916      0              5.7454588      55.802438    
     80100   2.1050442      2.5389686      0              5.6949932      55.513473    
     80200   2.118223       2.552793       0              5.728576       55.801898    
     80300   2.1535802      2.5889872      0              5.8177802      56.817455    
     80400   2.1327309      2.6707069      0              5.8682412      57.431362    
     80500   2.0698163      2.6311573      0              5.7343658      56.860468    
     80600   2.1043552      2.4892234      0              5.6442149      55.217271    
     80700   2.0847503      2.54801        0              5.6736086      56.043405    
     80800   2.0969383      2.6261682      0              5.7700398      56.816703    
     80900   2.1554961      2.5761764      0              5.8078418      56.436434    
     81000   2.0862758      2.5592382      0              5.6871239      56.280435    
     81100   2.0555675      2.4991087      0              5.5809544      55.491156    
     81200   2.022501       2.5986297      0              5.6308998      56.227056    
     81300   2.0812287      2.5988103      0              5.719129       56.463387    
     81400   2.1227411      2.566326       0              5.748883       56.031209    
     81500   2.0854019      2.5207756      0              5.6473511      55.487771    
     81600   2.0205835      2.4989118      0              5.5283072      55.158745    
     81700   2.057588       2.4878003      0              5.5726753      55.2042      
     81800   2.1073785      2.4988257      0              5.65835        55.339594    
     81900   2.1063506      2.5355102      0              5.6934934      55.994381    
     82000   2.0971993      2.4974429      0              5.6417058      55.147146    
     82100   1.9968347      2.4814181      0              5.4752076      55.001499    
     82200   2.0026547      2.4969362      0              5.4994515      54.875462    
     82300   2.0372344      2.5353278      0              5.5896874      55.524678    
     82400   2.0953874      2.4994252      0              5.6409717      55.013198    
     82500   2.1259918      2.4371792      0              5.6246097      54.670587    
     82600   2.0774801      2.3783019      0              5.4930005      53.546194    
     82700   1.9977957      2.4217474      0              5.4169777      53.864544    
     82800   2.0437073      2.4216216      0              5.4856856      54.323444    
     82900   2.0785326      2.4524317      0              5.5687082      54.794568    
     83000   2.0293064      2.549725       0              5.5921983      55.781336    
     83100   2.0474282      2.4840256      0              5.5536682      54.782141    
     83200   1.9611526      2.4576372      0              5.3979298      54.29936     
     83300   1.9569842      2.4568081      0              5.3908511      54.635431    
     83400   1.9896198      2.4846612      0              5.4676336      54.670963    
     83500   1.9970356      2.5259426      0              5.5200333      55.640089    
     83600   2.0331202      2.4833087      0              5.5314999      54.920198    
     83700   2.026948       2.4381672      0              5.4771046      54.534818    
     83800   2.0016257      2.3385735      0              5.339546       52.900983    
     83900   2.0087735      2.3514881      0              5.3631771      53.263472    
     84000   2.0235506      2.4280669      0              5.4619107      54.020955    
     84100   2.0668503      2.3932895      0              5.4920511      53.84733     
     84200   2.0337394      2.4216051      0              5.4707248      53.901355    
     84300   2.0093134      2.3946341      0              5.4071326      53.716564    
     84400   1.9529152      2.3567493      0              5.2846917      52.903977    
     84500   1.8926445      2.3967521      0              5.2343326      53.787423    
     84600   1.9949697      2.4052586      0              5.396252       53.62813     
     84700   2.0502296      2.3675646      0              5.4414074      53.399171    
     84800   2.0128773      2.4118783      0              5.42972        53.69325     
     84900   1.994194       2.3825677      0              5.3723982      53.657568    
     85000   1.9629255      2.3723786      0              5.3153292      53.122473    
     85100   1.9579911      2.3646293      0              5.3001819      53.056774    
     85200   1.9878667      2.4326903      0              5.4130344      54.43871     
     85300   2.0021347      2.4759209      0              5.4776566      54.738738    
     85400   1.9911434      2.4236563      0              5.4089131      54.142026    
     85500   1.9242462      2.4441993      0              5.3291593      54.310263    
     85600   2.0172339      2.2973194      0              5.3216928      52.414634    
     85700   1.9699354      2.3787786      0              5.3322389      53.585037    
     85800   1.9593966      2.4087615      0              5.3464214      53.95759     
     85900   1.9879772      2.3737734      0              5.3542831      53.458517    
     86000   1.9590155      2.369514       0              5.3066025      53.029576    
     86100   1.9156202      2.3632283      0              5.2352556      53.136547    
     86200   1.9620794      2.2821994      0              5.2238815      52.282291    
     86300   2.0069292      2.3145378      0              5.3234616      52.618962    
     86400   1.9773598      2.4360215      0              5.4006128      54.040533    
     86500   1.9508724      2.4189327      0              5.3438124      54.040489    
[...]
    128400   0.75429889     0.88535094     0              2.0162468      28.774269    
    128500   0.7351091      0.92329728     0              2.0254225      29.440346    
    128600   0.71680578     0.89725533     0              1.971939       29.054666    
    128700   0.71137752     0.88034458     0              1.9468898      28.717578    
    128800   0.72745481     0.85365983     0              1.9443092      28.165968    
    128900   0.70760322     0.88954012     0              1.9504267      28.690488    
    129000   0.71935153     0.88482936     0              1.9633298      28.639012    
    129100   0.69993102     0.90558626     0              1.9549701      29.092787    
    129200   0.70547793     0.85511009     0              1.9128103      28.171443    
    129300   0.6953095      0.85099033     0              1.8934453      27.941648    
    129400   0.68920847     0.86491601     0              1.8982239      28.283968    
    129500   0.70531236     0.8668252      0              1.9242771      28.350502    
    129600   0.72529618     0.87420266     0              1.9616157      28.635272    
    129700   0.70047454     0.87448986     0              1.9246886      28.443895    
    129800   0.69025466     0.85507815     0              1.8899546      28.092587    
    129900   0.67672086     0.85114351     0              1.8657292      27.892305    
    130000   0.66658992     0.84521138     0              1.844608       27.758014    
    130100   0.65502035     0.84843769     0              1.8304885      27.846107    
    130200   0.66065161     0.83951157     0              1.8300051      27.867982    
    130300   0.6908539      0.81795431     0              1.8537292      27.378757    
    130400   0.68163089     0.84589094     0              1.867838       27.878482    
    130500   0.67561371     0.82152832     0              1.8344541      27.346039    
    130600   0.66820145     0.79912314     0              1.8009359      26.90762     
    130700   0.65726288     0.81110043     0              1.7965134      27.193307    
    130800   0.65647268     0.8126666      0              1.7968948      27.27762     
    130900   0.67250959     0.78474044     0              1.7930123      26.634306    
    131000   0.64408912     0.80069529     0              1.7663572      27.014543    
    131100   0.64517975     0.77603657     0              1.7433337      26.525392    
    131200   0.62803119     0.80419185     0              1.7457786      26.888477    
    131300   0.66244925     0.79151054     0              1.7846992      26.653299    
    131400   0.64554707     0.83026801     0              1.7981158      27.61965     
    131500   0.64150712     0.8046926      0              1.7664834      27.064111    
    131600   0.63280301     0.79722979     0              1.7459708      26.767514    
    131700   0.62426768     0.78960575     0              1.72555        26.739756    
    131800   0.62282013     0.77020441     0              1.7039784      26.130985    
    131900   0.61389661     0.76875875     0              1.689154       26.165108    
    132000   0.614942       0.75957739     0              1.68154        26.114013    
    132100   0.62209372     0.74790164     0              1.6805866      25.833214    
    132200   0.60753454     0.78217384     0              1.6930307      26.56573     
    132300   0.62334882     0.76785643     0              1.7024231      26.154023    
    132400   0.62616466     0.73949446     0              1.6782828      25.661108    
    132500   0.61742761     0.71860321     0              1.6442924      25.307339    
    132600   0.5957658      0.74733277     0              1.6405451      25.806462    
    132700   0.61082327     0.73167091     0              1.6474584      25.44821     
    132800   0.59916016     0.76194797     0              1.6602494      26.136874    
    132900   0.61790926     0.7414143      0              1.6678256      25.765329    
    133000   0.60419165     0.72753769     0              1.6333826      25.493312    
    133100   0.59732623     0.71002323     0              1.6055751      25.140049    
    133200   0.58767203     0.71428105     0              1.5953587      25.231706    
    133300   0.590208       0.70908799     0              1.5939677      25.059767    
    133400   0.58658659     0.71271341     0              1.5921637      25.160042    
    133500   0.57285781     0.720751       0              1.5796181      25.307335    
    133600   0.57431059     0.69761183     0              1.5586571      24.826709    
    133700   0.55793429     0.70740224     0              1.543895       25.077531    
    133800   0.56538114     0.69682183     0              1.5444794      24.743172    
    133900   0.58054325     0.70066099     0              1.5710507      24.854947    
    134000   0.58399662     0.70811057     0              1.5836778      25.184277    
    134100   0.56632277     0.69970046     0              1.5487698      24.869933    
    134200   0.5724986      0.66810587     0              1.5264345      24.188776    
    134300   0.54819217     0.69387302     0              1.5157598      24.678994    
    134400   0.54731302     0.68334173     0              1.5039104      24.458827    
    134500   0.54599003     0.66635649     0              1.4849416      24.178275    
    134600   0.53433725     0.65824556     0              1.4593601      23.973055    
    134700   0.5362969      0.65221848     0              1.456271       23.825406    
    134800   0.5490988      0.67315024     0              1.4963963      24.14924     
    134900   0.56177682     0.66151116     0              1.5037649      24.061333    
    135000   0.54858092     0.65548755     0              1.4779571      23.987025    
    135100   0.53401484     0.65694676     0              1.4575779      23.691999    
    135200   0.53059912     0.65040114     0              1.4459112      23.840529    
    135300   0.52951661     0.64108997     0              1.4349771      23.609811    
    135400   0.52788517     0.62367099     0              1.4151121      23.335437    
    135500   0.50177773     0.62877526     0              1.3810743      23.280839    
    135600   0.50691722     0.62832998     0              1.3883345      23.265532    
    135700   0.51652199     0.6319034      0              1.4063081      23.325321    
    135800   0.51448761     0.63750532     0              1.4088599      23.682438    
    135900   0.51472515     0.62762682     0              1.3993375      23.161059    
    136000   0.51118857     0.61033923     0              1.3767477      22.853603    
    136100   0.49528337     0.61900922     0              1.3615715      23.099242    
    136200   0.49926193     0.61258047     0              1.3611077      23.04736     
    136300   0.50283252     0.60885187     0              1.3627324      22.970244    
    136400   0.49467517     0.61560352     0              1.357254       23.008832    
    136500   0.4856529      0.60732206     0              1.3354457      22.702171    
    136600   0.47946803     0.59272446     0              1.3115753      22.614066    
    136700   0.47459604     0.6006149      0              1.3121614      22.624423    
    136800   0.4886065      0.58677738     0              1.3193293      22.304878    
    136900   0.48632566     0.58938474     0              1.318517       22.289444    
    137000   0.4869015      0.57881187     0              1.3088075      22.245174    
    137100   0.46973308     0.58402165     0              1.2882772      22.281686    
    137200   0.4615601      0.57579363     0              1.2677957      22.119946    
    137300   0.46780177     0.56603219     0              1.2673922      21.971272    
    137400   0.47454339     0.56745091     0              1.2789184      21.952978    
    137500   0.47593033     0.60936158     0              1.3229085      22.97507     
    137600   0.46524137     0.6065659      0              1.3040872      22.653797    
    137700   0.46588311     0.57084581     0              1.2693293      21.939596    
    137800   0.4609711      0.55108297     0              1.242202       21.446781    
    137900   0.44651152     0.55324407     0              1.2226843      21.512035    
    138000   0.44400627     0.5473653      0              1.2130495      21.392628    
    138100   0.43852758     0.55165303     0              1.2091232      21.501249    
    138200   0.43779694     0.54875752     0              1.2051323      21.436726    
    138300   0.4433739      0.53016379     0              1.1948999      20.981631    
    138400   0.4262607      0.53943468     0              1.1785135      21.392102    
    138500   0.43580948     0.51637257     0              1.1697676      20.63606     
    138600   0.42349593     0.53094295     0              1.1658767      21.054212    
    138700   0.43016579     0.52674758     0              1.1716812      21.023805    
    138800   0.43449579     0.5244839      0              1.1759094      20.908986    
    138900   0.41990316     0.53002415     0              1.1595713      20.964572    
    139000   0.41892371     0.50818708     0              1.1362658      20.508804    
    139100   0.40848413     0.51800997     0              1.130437       20.91838     
    139200   0.4118673      0.51223872     0              1.129738       20.418625    
    139300   0.40435887     0.51140205     0              1.1176442      20.504863    
    139400   0.39997502     0.49267017     0              1.0923397      20.143938    
    139500   0.39862645     0.49075619     0              1.0884039      20.189518    
    139600   0.40126784     0.50077956     0              1.1023874      20.283448    
    139700   0.41277295     0.50260212     0              1.1214592      20.388655    
    139800   0.39913945     0.50727508     0              1.1056919      20.567469    
    139900   0.39715809     0.48062586     0              1.0760721      19.795211    
    140000   0.3863878      0.48182629     0              1.061125       19.747917    
    140100   0.38695837     0.46797184     0              1.048126       19.564871    
    140200   0.38070357     0.46973996     0              1.0405165      19.581953    
    140300   0.38331711     0.45869209     0              1.033387       19.366226    
    140400   0.38010736     0.4495184      0              1.019401       18.94877     
    140500   0.36895543     0.45263712     0              1.0058         19.154821    
    140600   0.36077622     0.46422296     0              1.005123       19.444978    
    140700   0.37345051     0.46326906     0              1.0231713      19.467774    
    140800   0.375377       0.46937188     0              1.0321624      19.522703    
    140900   0.36778384     0.45518486     0              1.0065913      19.18664     
    141000   0.36322058     0.4476709      0              0.99223574     19.109864    
    141100   0.36483542     0.43057489     0              0.97756081     18.745624    
    141200   0.35305574     0.43400746     0              0.96333249     18.701359    
    141300   0.3501545      0.42943977     0              0.95441506     18.615104    
    141400   0.34404533     0.42960432     0              0.94542032     18.595869    
    141500   0.33161414     0.42594992     0              0.92312824     18.405634    
    141600   0.34141469     0.4043811      0              0.91625306     17.894217    
    141700   0.3411137      0.41716167     0              0.92858239     18.147312    
    141800   0.34461505     0.42544523     0              0.94211539     18.359062    
    141900   0.3391252      0.41666395     0              0.92510338     18.342837    
    142000   0.32752358     0.41158329     0              0.90262877     18.016525    
    142100   0.32582453     0.40806411     0              0.89656226     18.035248    
    142200   0.3308842      0.39175984     0              0.8878438      17.576975    
    142300   0.31887842     0.39761068     0              0.87569475     17.713084    
    142400   0.32120928     0.38356693     0              0.8651456      17.409178    
    142500   0.3073797      0.39619729     0              0.85704172     17.666197    
    142600   0.3112362      0.37373317     0              0.84035952     17.152283    
    142700   0.30723881     0.36877492     0              0.82940811     17.017762    
    142800   0.30890986     0.37433141     0              0.83746995     17.13767     
    142900   0.31361193     0.38842361     0              0.85861181     17.505329    
    143000   0.31427937     0.38131271     0              0.85250158     17.294039    
    143100   0.30569535     0.37809417     0              0.83641329     17.249423    
    143200   0.30009265     0.36881184     0              0.81873102     16.892694    
    143300   0.29468513     0.36101343     0              0.80282529     16.876883    
    143400   0.29494665     0.34915127     0              0.79135521     16.520298    
    143500   0.2929207      0.34315877     0              0.78232528     16.370053    
    143600   0.28698867     0.34306747     0              0.77334027     16.297974    
    143700   0.27806319     0.33948619     0              0.75637732     16.101339    
    143800   0.27604726     0.33006022     0              0.74392892     15.919086    
    143900   0.27893533     0.32853162     0              0.74673031     15.751253    
    144000   0.2791307      0.33033231     0              0.74882392     15.870292    
    144100   0.27708875     0.32866054     0              0.74409072     15.962151    
    144200   0.26769215     0.32660695     0              0.72794912     15.641836    
    144300   0.2669388      0.31908163     0              0.71929431     15.734589    
    144400   0.26072406     0.3255873      0              0.71648244     15.770736    
    144500   0.25789846     0.32112473     0              0.70778353     15.642773    
    144600   0.2525999      0.31580892     0              0.69452376     15.446355    
    144700   0.25394288     0.30815777     0              0.6888861      15.267185    
    144800   0.25632389     0.30209435     0              0.68639245     15.099819    
    144900   0.24417855     0.31110865     0              0.67719764     15.333157    
    145000   0.24591742     0.29657605     0              0.66527206     14.948451    
    145100   0.24611225     0.29087088     0              0.65985901     14.806591    
    145200   0.24268687     0.29065409     0              0.65450664     14.570984    
    145300   0.23944709     0.2859607      0              0.64495597     14.623722    
    145400   0.23342839     0.28690825     0              0.63687987     14.671921    
    145500   0.23806889     0.27471807     0              0.63164704     14.252685    
    145600   0.23136867     0.27559464     0              0.6224782      14.167898    
    145700   0.22836049     0.2706433      0              0.61301678     14.083585    
    145800   0.21976617     0.27668745     0              0.60617574     14.347678    
    145900   0.2239867      0.26236054     0              0.59817654     13.862655    
    146000   0.22367798     0.25497462     0              0.59032776     13.727154    
    146100   0.21388028     0.26219026     0              0.58285403     13.842245    
    146200   0.21783991     0.24865399     0              0.5752543      13.425521    
    146300   0.21155859     0.24951125     0              0.56669418     13.509064    
    146400   0.21006487     0.2440276      0              0.55897106     13.290991    
    146500   0.20327904     0.2459649      0              0.55073458     13.488925    
    146600   0.19953589     0.24351216     0              0.54266984     13.302422    
    146700   0.1964761      0.24024594     0              0.53481618     13.188596    
    146800   0.19461788     0.23501335     0              0.52679762     13.051756    
    146900   0.19035226     0.23338174     0              0.51877072     13.011702    
    147000   0.1939148      0.2204186      0              0.51114877     12.57634     
    147100   0.18235119     0.22949448     0              0.50288771     12.725562    
    147200   0.18387694     0.21940222     0              0.49508295     12.448629    
    147300   0.18069269     0.21608916     0              0.48699585     12.360569    
    147400   0.17703995     0.21341255     0              0.4788428      12.286123    
    147500   0.17437535     0.20984097     0              0.47127628     12.269621    
    147600   0.17381918     0.20226802     0              0.46286947     11.960469    
    147700   0.17129014     0.19851763     0              0.45532738     11.782536    
    147800   0.16501928     0.19982768     0              0.44723574     11.797203    
    147900   0.16564796     0.19082333     0              0.43917395     11.579061    
    148000   0.16136067     0.18926263     0              0.43118546     11.440254    
    148100   0.15697879     0.18795687     0              0.42331008     11.430996    
    148200   0.15085835     0.1890365      0              0.41521353     11.445313    
    148300   0.15003723     0.18232778     0              0.40727373     11.220384    
    148400   0.15017471     0.17436527     0              0.39951734     10.916108    
    148500   0.14778233     0.16977019     0              0.39133544     10.743472    
    148600   0.14291705     0.16917854     0              0.38344943     10.722296    
    148700   0.13930221     0.16667115     0              0.37552244     10.658855    
    148800   0.1399289      0.15779356     0              0.36758442     10.319521    
    148900   0.1370999      0.15424871     0              0.35979815     10.17131     
    149000   0.1291443      0.15785458     0              0.35147643     10.318307    
    149100   0.12790922     0.15210154     0              0.34387169     10.069363    
    149200   0.12588898     0.14709979     0              0.33584106     9.9068793    
    149300   0.12341681     0.14269632     0              0.32773115     9.7183169    
    149400   0.12059765     0.13922369     0              0.32003183     9.5416298    
    149500   0.1195776      0.13280301     0              0.31208183     9.3347766    
    149600   0.11414658     0.13286927     0              0.30400553     9.3625432    
    149700   0.10970701     0.13172641     0              0.29620657     9.3063889    
    149800   0.10961335     0.12388203     0              0.28822176     8.9353922    
    149900   0.1049629      0.12310904     0              0.28047651     8.9141314    
    150000   0.10283462     0.11826385     0              0.27244047     8.6835967    
Loop time of 24.189 on 1 procs for 100000 steps with 2048 atoms

Performance: 714373.917 tau/day, 4134.108 timesteps/s, 8.467 Matom-step/s
99.1% CPU use with 1 MPI tasks x 1 OpenMP threads

MPI task timing breakdown:
Section |  min time  |  avg time  |  max time  |%varavg| %total
---------------------------------------------------------------
Pair    | 16.209     | 16.209     | 16.209     |   0.0 | 67.01
Neigh   | 3.9502     | 3.9502     | 3.9502     |   0.0 | 16.33
Comm    | 0.73403    | 0.73403    | 0.73403    |   0.0 |  3.03
Output  | 0.178      | 0.178      | 0.178      |   0.0 |  0.74
Modify  | 2.5211     | 2.5211     | 2.5211     |   0.0 | 10.42
Other   |            | 0.5967     |            |       |  2.47

Nlocal:           2048 ave        2048 max        2048 min
Histogram: 1 0 0 0 0 0 0 0 0 0
Nghost:           1381 ave        1381 max        1381 min
Histogram: 1 0 0 0 0 0 0 0 0 0
Neighs:          12288 ave       12288 max       12288 min
Histogram: 1 0 0 0 0 0 0 0 0 0

Total # of neighbors = 12288
Ave neighs/atom = 6
Neighbor list builds = 5727
Dangerous builds = 0
Total wall time: 0:00:37
