LAMMPS (15 Sep 2022)
OMP_NUM_THREADS environment is not set. Defaulting to 1 thread. (src/comm.cpp:98)
  using 1 OpenMP thread(s) per MPI task
# 3d WCA system, random initial configuration

#variable density equal 0.5
variable initial_temperature equal 3.0
variable final_temperature equal 0.1
variable dt equal 0.002
variable tau equal 100*${dt}
variable tau equal 100*0.002
variable thermo_time equal 50000*${dt}
variable thermo_time equal 50000*0.002
variable equil_steps equal 50000
variable run_steps equal 100000

units           lj
atom_style      atomic
dimension       3

lattice         fcc ${density}
lattice         fcc 0.8
Lattice spacing in x,y,z = 1.7099759 1.7099759 1.7099759
region          box block 0 8 0 8 0 8
# number of atom types
create_box      1 box
Created orthogonal box = (0 0 0) to (13.679808 13.679808 13.679808)
  1 by 1 by 1 MPI processor grid
create_atoms    1 box
Created 2048 atoms
  using lattice units in orthogonal box = (0 0 0) to (13.679808 13.679808 13.679808)
  create_atoms CPU = 0.000 seconds
mass 1 1.0

velocity all create ${initial_temperature} 12345
velocity all create 3 12345

pair_style      lj/cut 1.0
#type_1 type_2 epsilon sigma cutoff
pair_coeff      1 1 10.0 0.89089871814 1.0
pair_modify shift yes

timestep ${dt}
timestep 0.002
thermo ${thermo_time}
thermo 100

fix 1 all nvt temp ${initial_temperature} ${initial_temperature} ${tau}
fix 1 all nvt temp 3 ${initial_temperature} ${tau}
fix 1 all nvt temp 3 3 ${tau}
fix 1 all nvt temp 3 3 0.2
run ${equil_steps}
run 50000
Generated 0 of 0 mixed pair_coeff terms from geometric mixing rule
Neighbor list info ...
  update: every = 1 steps, delay = 0 steps, check = yes
  max neighbors/atom: 2000, page size: 100000
  master list distance cutoff = 1.3
  ghost atom cutoff = 1.3
  binsize = 0.65, bins = 22 22 22
  1 neighbor lists, perpetual/occasional/extra = 1 0 0
  (1) pair lj/cut, perpetual
      attributes: half, newton on
      pair build: half/bin/atomonly/newton
      stencil: half/bin/3d
      bin: standard
Per MPI rank memory allocation (min/avg/max) = 3.184 | 3.184 | 3.184 Mbytes
   Step          Temp          E_pair         E_mol          TotEng         Press     
         0   3              0              0              4.4978027      2.3988281    
       100   2.6378656      0.76948111     0              4.7243475      10.439274    
       200   2.8275022      0.86660684     0              5.1057892      11.376978    
       300   2.9840459      0.97607656     0              5.4499599      12.298496    
       400   3.0788441      1.008448       0              5.624459       12.7041      
       500   3.0527282      0.94485517     0              5.5217116      12.204502    
       600   2.9933143      0.84676999     0              5.3345491      11.473746    
       700   2.9911762      0.84479911     0              5.3293727      11.280717    
       800   3.045963       0.91805508     0              5.4847686      12.008444    
       900   3.0447173      0.99721242     0              5.5620584      12.660607    
      1000   3.0270951      0.9348135      0              5.473239       12.038712    
      1100   2.9114064      0.98641874     0              5.351396       12.528757    
      1200   2.9782107      0.94870458     0              5.4138393      12.122321    
      1300   3.0597159      0.95910904     0              5.5464419      12.233095    
      1400   3.0166401      0.98340636     0              5.5061571      12.497848    
      1500   2.9129801      0.91684999     0              5.2841866      11.922406    
      1600   2.9001467      0.93704863     0              5.2851446      11.943288    
      1700   2.9568821      0.98470999     0              5.4178675      12.404165    
      1800   3.0306488      0.96782227     0              5.5115757      12.274106    
      1900   3.0372259      0.95111168     0              5.504726       12.122152    
      2000   2.9191302      0.95227004     0              5.3288273      12.291296    
      2100   2.9059028      0.93853122     0              5.2952571      12.032272    
      2200   2.9535494      0.98242787     0              5.4105887      12.409046    
      2300   3.0225284      0.92087268     0              5.4524516      11.873407    
      2400   3.0285344      0.91722661     0              5.45781        11.896171    
      2500   2.995348       0.95666675     0              5.4474949      12.192523    
      2600   3.0415217      0.92471191     0              5.4847668      11.912657    
      2700   3.0000769      1.0097605      0              5.5076784      12.736164    
      2800   2.9944295      0.97548485     0              5.4649359      12.348291    
      2900   2.9487383      0.93570102     0              5.3566488      12.006764    
      3000   2.944391       0.9257983      0              5.3402283      11.940897    
      3100   3.0207031      1.0088455      0              5.5376878      12.667852    
      3200   3.0864413      0.95814991     0              5.5855512      12.30528     
      3300   3.0000062      0.96191951     0              5.4597315      12.391849    
      3400   2.9612122      0.95850571     0              5.3981552      12.160187    
      3500   2.98209        0.94617268     0              5.4171235      12.140749    
      3600   3.0372652      0.94028563     0              5.4939589      11.993927    
      3700   3.0581398      0.9643655      0              5.5493354      12.187315    
      3800   3.012582       0.98511751     0              5.501784       12.355642    
      3900   2.9116052      0.99279183     0              5.3580671      12.455259    
      4000   2.981414       0.88570808     0              5.3556454      11.761179    
      4100   3.0510827      0.90860623     0              5.4829956      11.928876    
      4200   2.9978226      1.0622913      0              5.5568296      13.046465    
      4300   2.9724272      0.96232545     0              5.4187892      12.351042    
      4400   2.9200917      0.91299835     0              5.2909971      11.901307    
      4500   2.9580976      0.95876566     0              5.3937455      12.239614    
      4600   3.0007119      1.0148208      0              5.5136908      12.658896    
      4700   3.0680934      0.89166211     0              5.4915551      11.915089    
      4800   2.9671746      0.9670726      0              5.4156613      12.302967    
      4900   2.9875508      0.93405206     0              5.4131901      12.031019    
      5000   2.9834737      0.97450783     0              5.4475332      12.319104    
      5100   3.0033367      0.99326435     0              5.4960697      12.559368    
      5200   3.1475209      0.91702976     0              5.6360058      11.990485    
      5300   3.0229054      1.0084876      0              5.5406317      12.521283    
      5400   2.9636214      0.918859       0              5.3621205      11.862361    
      5500   2.9189401      0.98021545     0              5.3564877      12.227435    
      5600   3.0524657      0.9236605      0              5.5001234      11.968361    
      5700   3.0252181      0.98181436     0              5.5174258      12.402562    
      5800   2.9656048      0.96305718     0              5.4092924      12.141203    
      5900   2.8665452      0.8967318      0              5.1944501      11.588115    
      6000   2.9135574      0.90147699     0              5.2696791      11.657848    
      6100   3.0221473      0.92106559     0              5.4520731      12.068972    
      6200   2.9938823      0.98216567     0              5.4707963      12.421327    
      6300   2.9803318      0.95905292     0              5.4273677      12.127398    
      6400   3.0036916      0.91578708     0              5.4191245      11.957075    
      6500   3.0404543      0.93017283     0              5.4886275      12.157364    
      6600   3.0204775      1.0006565      0              5.5291605      12.459568    
      6700   2.9531516      0.98469        0              5.4122544      12.387381    
      6800   2.9368039      0.89236586     0              5.2954207      11.824828    
      6900   3.0073661      0.894622       0              5.4034685      11.679599    
      7000   3.0647038      0.94106349     0              5.5358746      12.09344     
      7100   3.0266189      0.95625597     0              5.4939675      12.280786    
      7200   2.9856062      0.94436894     0              5.4205915      12.11054     
      7300   2.9832781      0.90137526     0              5.3741073      11.782302    
      7400   2.9944105      0.93007688     0              5.4194995      12.09937     
      7500   3.0879937      0.96634374     0              5.5960726      12.33202     
      7600   3.054641       0.96561926     0              5.5453435      12.276139    
      7700   2.9406553      0.97562345     0              5.3844527      12.28411     
      7800   2.9795285      0.93283745     0              5.399948       12.093427    
      7900   2.9829098      0.98045331     0              5.4526333      12.33434     
      8000   3.0664198      0.93592643     0              5.5333102      12.056218    
      8100   3.0783062      0.99942367     0              5.6146284      12.542068    
      8200   3.0302035      0.949336       0              5.4924219      12.231241    
      8300   2.9878339      0.88000846     0              5.359571       11.61224     
      8400   2.9913043      0.89165512     0              5.3764207      11.652918    
      8500   3.037259       0.95660141     0              5.5102654      12.176002    
      8600   3.1010512      0.9474087      0              5.5967143      12.136186    
      8700   2.9369109      0.97062608     0              5.3738413      12.2523      
      8800   2.8896871      0.96839714     0              5.3008113      12.313439    
      8900   3.0360293      0.89769036     0              5.4495107      11.822175    
      9000   3.0485795      0.96867234     0              5.5393087      12.289954    
      9100   3.0027096      0.99932294     0              5.5011881      12.453345    
      9200   2.9159993      0.97821784     0              5.3500811      12.443442    
      9300   2.8614053      0.97097178     0              5.260984       12.332914    
      9400   3.012817       0.96098266     0              5.4780015      12.326256    
      9500   3.0650671      0.95299189     0              5.5483476      12.259608    
      9600   2.9958272      0.92750959     0              5.4190562      12.100636    
      9700   2.927862       0.9518329      0              5.3414815      12.062105    
      9800   3.0401131      0.87753436     0              5.4354774      11.702973    
      9900   3.1085153      0.948397       0              5.6088932      12.270401    
     10000   3.0354053      1.0195699      0              5.5704547      12.761298    
     10100   2.9546288      0.90602652     0              5.3358057      11.848653    
     10200   2.9640713      0.94188978     0              5.3858258      12.262841    
     10300   3.0332313      0.94634569     0              5.493971       12.107915    
     10400   3.0490115      0.92225974     0              5.4935438      12.071738    
     10500   2.9450611      0.97103182     0              5.3864665      12.409934    
     10600   2.9018658      0.93258885     0              5.2832621      11.871358    
     10700   2.962189       0.91696727     0              5.3580811      11.911218    
     10800   3.0574361      0.96099013     0              5.544905       12.316829    
     10900   3.0078639      0.98570436     0              5.4952971      12.420118    
     11000   2.9822589      0.90471067     0              5.3759148      11.791759    
     11100   2.9672171      0.91575484     0              5.3644072      11.994612    
     11200   3.0492473      0.92582553     0              5.4974631      12.022544    
     11300   3.0723301      0.98949784     0              5.5957428      12.598002    
     11400   3.0664578      0.95059597     0              5.5480368      12.237975    
     11500   2.9663807      1.00252        0              5.4499184      12.504589    
     11600   2.8926734      1.0092625      0              5.346154       12.559       
     11700   2.9293366      0.97430852     0              5.3661679      12.347927    
     11800   3.0750951      0.91857757     0              5.528968       12.090876    
     11900   3.0976858      0.89597851     0              5.5402385      11.872818    
     12000   3.0342169      0.86341796     0              5.412521       11.639121    
     12100   2.9587688      0.95237368     0              5.3883598      12.307049    
     12200   3.0237586      0.89892019     0              5.4323434      11.869868    
     12300   3.0488292      0.92741769     0              5.4984284      11.960129    
     12400   3.0100806      0.98475147     0              5.4976677      12.532036    
     12500   2.929504       0.93935161     0              5.3314619      12.189421    
     12600   2.9474649      0.88245881     0              5.3014973      11.672205    
     12700   3.0327146      0.94299717     0              5.4898478      12.159191    
     12800   3.0357348      0.98335363     0              5.5347324      12.501339    
     12900   3.0260802      0.9329077      0              5.4698117      11.966162    
     13000   2.9076456      1.024759       0              5.3840978      12.605605    
     13100   2.9647824      0.94865404     0              5.3936561      12.243023    
     13200   3.0572215      1.0039161      0              5.5875092      12.48482     
     13300   3.1421174      0.88459052     0              5.5954653      11.793269    
     13400   2.9694758      0.95887261     0              5.4109114      12.270345    
     13500   2.9855425      0.91877609     0              5.3949032      11.987089    
     13600   2.9876039      0.98528822     0              5.4645059      12.518139    
     13700   3.0630243      0.96345031     0              5.5557434      12.362187    
     13800   2.9922282      1.0231755      0              5.5093263      12.749076    
     13900   2.9129145      0.94974328     0              5.3169816      12.020806    
     14000   2.9399167      0.92237        0              5.3300918      11.822384    
     14100   2.9788343      1.0080198      0              5.4740895      12.638955    
     14200   3.0245512      1.0022408      0              5.5368524      12.787483    
     14300   2.9734537      1.0326348      0              5.4906375      12.633131    
     14400   3.0140393      0.92300981     0              5.4418613      11.933873    
     14500   2.9588032      0.98536813     0              5.4214058      12.339459    
     14600   2.9878452      0.95908489     0              5.4386643      12.295671    
     14700   3.0464124      0.93201097     0              5.4993983      12.040674    
     14800   3.0133318      1.0161213      0              5.533912       12.633158    
     14900   2.9607055      1.0290432      0              5.467933       12.679248    
     15000   2.9466597      0.92871203     0              5.3465434      11.941602    
     15100   2.9110355      0.97970162     0              5.3441227      12.365397    
     15200   3.0077598      1.042419       0              5.5518557      12.915675    
     15300   3.0947145      0.92471942     0              5.5645245      11.996055    
     15400   3.0285798      0.91615967     0              5.4568112      11.94986     
     15500   2.9592737      0.95607079     0              5.3928139      12.247512    
     15600   2.986844       0.94050749     0              5.4185858      12.003779    
     15700   3.0470882      0.98162234     0              5.550023       12.482055    
     15800   3.1151477      1.0283314      0              5.6987713      12.854198    
     15900   3.0066323      0.99709396     0              5.5048403      12.524       
     16000   3.0023989      0.89998545     0              5.4013848      11.861778    
     16100   2.9474763      0.98437213     0              5.4034278      12.340441    
     16200   3.0458854      0.93421746     0              5.5008147      12.022177    
     16300   3.049218       0.97779527     0              5.5493889      12.480332    
     16400   2.9946844      0.95288062     0              5.4427138      12.21277     
     16500   2.9436998      0.88698073     0              5.3003743      11.653945    
     16600   2.9741091      0.92260168     0              5.381587       11.968456    
     16700   3.0027857      1.0073178      0              5.5092971      12.65118     
     16800   3.0523779      0.94494197     0              5.5212731      12.269435    
     16900   3.0085985      0.95223631     0              5.4629306      12.220548    
     17000   3.0367578      0.87728345     0              5.430196       11.805689    
     17100   2.9499478      0.99791375     0              5.4206749      12.414145    
     17200   3.0000919      0.99086352     0              5.488804       12.326748    
     17300   3.0491394      1.0100457      0              5.5815215      12.527367    
     17400   2.9752184      1.0326625      0              5.4933109      12.672264    
     17500   2.987256       0.86224225     0              5.3409383      11.534304    
     17600   2.9803501      0.90463064     0              5.372973       11.795513    
     17700   3.0152121      0.94873152     0              5.4693413      12.13631     
     17800   3.0320485      0.96249294     0              5.5083449      12.245285    
     17900   2.9271092      0.90845092     0              5.2969709      11.81488     
     18000   2.8931061      0.93947789     0              5.2770181      11.986808    
     18100   3.0293187      0.90790263     0              5.449662       11.830926    
     18200   3.0125223      0.98067402     0              5.4972511      12.480484    
     18300   3.01092        0.96390997     0              5.4780846      12.312514    
     18400   3.0117029      0.85300567     0              5.3683541      11.511309    
     18500   2.8941276      0.90268004     0              5.2417517      11.725259    
     18600   2.9779193      0.92689091     0              5.3915888      11.975018    
     18700   2.9774782      1.0121883      0              5.4762248      12.594551    
     18800   3.0050106      0.94786323     0              5.4531781      12.182227    
     18900   2.9575396      0.95729718     0              5.3914405      12.123433    
     19000   3.0430649      0.83722511     0              5.3995936      11.407935    
     19100   3.0764955      0.94319021     0              5.5556801      12.148078    
     19200   3.035578       0.9983374      0              5.5494811      12.628674    
     19300   2.9401604      0.9610387      0              5.3691258      12.324296    
     19400   2.9426579      0.93524045     0              5.347072       11.965975    
     19500   2.9795096      0.97054039     0              5.4376226      12.32825     
     19600   3.0294797      0.97675311     0              5.5187538      12.488588    
     19700   3.0394007      0.93066211     0              5.487537       12.166658    
     19800   3.00669        0.90105507     0              5.408888       11.768711    
     19900   2.9857999      0.92093957     0              5.3974526      11.960055    
     20000   2.9756927      0.97668366     0              5.4380432      12.322715    
     20100   3.0616132      0.91200642     0              5.5021838      11.981498    
     20200   3.0250074      0.97938457     0              5.5146802      12.306317    
     20300   2.9438246      0.96717535     0              5.3807562      12.183845    
     20400   2.9364358      0.91037519     0              5.3128782      11.818423    
     20500   2.940603       1.0367495      0              5.4455003      12.666336    
     20600   3.0739026      0.94285206     0              5.5514545      12.138766    
     20700   3.0154208      0.94771866     0              5.4686413      12.195229    
     20800   2.9716577      0.95462403     0              5.4099341      12.211998    
     20900   3.0047793      0.89919974     0              5.4041679      11.84127     
     21000   2.996915       0.92340208     0              5.4165796      11.911301    
     21100   3.0479625      0.96256477     0              5.5322762      12.414066    
     21200   3.1567045      0.91670316     0              5.6494479      12.128286    
     21300   3.0049086      0.9597342      0              5.4648962      12.209002    
     21400   2.9978739      0.88832695     0              5.3829421      11.613131    
     21500   2.971928       0.95441109     0              5.4101264      12.201707    
     21600   3.020286       0.99207382     0              5.5202908      12.551689    
     21700   3.1410115      0.95542132     0              5.664638       12.317964    
     21800   2.9953025      0.99265485     0              5.4834148      12.53865     
     21900   2.9256237      0.96347798     0              5.3497708      12.198653    
     22000   2.9688694      0.94237637     0              5.393506       12.191377    
     22100   3.0466382      0.94406369     0              5.5117895      12.301766    
     22200   3.0187026      1.0212744      0              5.5471173      12.727098    
     22300   2.9155449      0.97526863     0              5.3464505      12.397518    
     22400   2.8919217      0.9510581      0              5.2868225      12.092632    
     22500   2.9694649      0.96785339     0              5.4198759      12.397267    
     22600   3.0260895      0.9676194      0              5.5045373      12.380831    
     22700   3.0498504      0.90605397     0              5.4785958      11.948534    
     22800   2.953723       0.97108865     0              5.3995098      12.287113    
     22900   2.8981263      0.87335355     0              5.2184203      11.513088    
     23000   2.889379       0.89502637     0              5.2269786      11.70744     
     23100   2.9741124      0.96920453     0              5.4281948      12.161315    
     23200   2.9994721      0.99255503     0              5.4895664      12.580405    
     23300   3.0399557      0.9480756      0              5.5057825      12.290046    
     23400   3.0383672      0.90411453     0              5.45944        11.827352    
     23500   2.925422       0.94544406     0              5.3314344      12.138044    
     23600   2.9634855      0.88063053     0              5.3236883      11.537507    
     23700   3.0468168      0.96661614     0              5.5346098      12.30493     
     23800   3.0480343      0.99256454     0              5.5623836      12.575631    
     23900   3.0110607      0.94006685     0              5.4544526      12.111942    
     24000   2.9693368      0.92641184     0              5.3782422      12.017915    
     24100   2.9096629      1.0532462      0              5.4156094      12.801023    
     24200   2.9746412      1.0234373      0              5.4832205      12.72026     
     24300   3.0085536      0.98908818     0              5.499715       12.554939    
     24400   3.0124343      0.94675706     0              5.4632021      12.11687     
     24500   2.9516871      0.90452805     0              5.3298968      11.743454    
     24600   2.8821221      0.87167758     0              5.1927499      11.497955    
     24700   2.9400614      0.96267469     0              5.3706134      12.109721    
     24800   3.0081397      0.94237348     0              5.4523798      12.226405    
     24900   3.0375333      0.9273782      0              5.4814534      11.969276    
     25000   2.9871906      0.96958515     0              5.4481831      12.282154    
     25100   2.9231136      0.96008476     0              5.3426142      12.236615    
     25200   2.9502812      0.89091012     0              5.3141711      11.665757    
     25300   3.03682        0.93785694     0              5.4908627      12.128317    
     25400   3.0820406      0.95251354     0              5.5733171      12.177042    
     25500   3.012037       0.94300705     0              5.4588565      12.023316    
     25600   2.9637877      0.94542028     0              5.3889311      12.206702    
     25700   2.9841605      0.94714469     0              5.4211998      12.234164    
     25800   2.9626937      1.0356317      0              5.4775023      12.749149    
     25900   3.0780656      0.91755322     0              5.5323972      12.03617     
     26000   2.9662481      0.98204782     0              5.4292475      12.377233    
     26100   2.9066112      0.91212074     0              5.2699086      11.760989    
     26200   2.9838859      0.91821939     0              5.3918627      11.947271    
     26300   3.0613359      0.9200945      0              5.5098561      12.006187    
     26400   2.9957425      0.97700953     0              5.4684291      12.348396    
     26500   2.9529911      0.97999776     0              5.4073215      12.33988     
     26600   3.0221221      0.89814221     0              5.4291119      11.762154    
     26700   3.0309061      1.0292176      0              5.5733568      12.731336    
     26800   3.0807544      0.95721245     0              5.5760876      12.236693    
     26900   2.9722849      0.94276303     0              5.3990134      12.115273    
     27000   2.9733634      0.91696068     0              5.3748281      11.828784    
     27100   3.004786       0.94753534     0              5.4525136      12.166812    
     27200   3.078955       0.97091536     0              5.5870928      12.342146    
     27300   3.088009       1.0078042      0              5.637556       12.791156    
     27400   2.988869       0.91348238     0              5.3945968      11.882843    
     27500   2.9333306      0.98246642     0              5.3803139      12.285763    
     27600   3.0592205      0.90335359     0              5.4899437      11.887226    
     27700   2.9942652      1.0087815      0              5.4979862      12.546346    
     27800   2.9443583      0.93754742     0              5.3519283      12.14279     
     27900   2.9013973      0.91555019     0              5.2655212      11.963986    
     28000   3.0321602      0.8930384      0              5.4390578      11.912247    
     28100   3.0204331      0.94480523     0              5.4732427      12.231497    
     28200   2.9885282      0.96438973     0              5.4449931      12.217303    
     28300   2.9588047      0.95098713     0              5.3870271      12.108811    
     28400   2.9936682      0.91035735     0              5.3986671      11.843705    
     28500   3.0728034      0.93944058     0              5.5463951      12.05409     
     28600   3.0957617      0.95233227     0              5.5937074      12.390702    
     28700   3.0181845      0.88447833     0              5.4095445      11.835777    
     28800   2.9653284      0.92263724     0              5.3684579      11.878572    
     28900   2.9777176      0.9643151      0              5.4287106      12.229613    
     29000   2.9950012      1.0033493      0              5.4936575      12.542408    
     29100   3.053323       0.88486028     0              5.4626084      11.772941    
     29200   2.9690786      0.83465794     0              5.2861012      11.412294    
     29300   2.9507604      0.8828487      0              5.3068282      11.679997    
     29400   3.0205978      0.95624664     0              5.484931       12.271239    
     29500   3.0249558      0.97512124     0              5.5103394      12.416793    
     29600   3.0132965      0.93112564     0              5.4488635      12.070311    
     29700   2.9525766      0.9388332      0              5.3655356      12.055507    
     29800   2.9020876      0.87839865     0              5.2294045      11.527206    
     29900   2.9024791      0.9322203      0              5.2838131      11.933185    
     30000   2.9967097      0.9882915      0              5.4811613      12.518495    
     30100   3.058168       0.9359552      0              5.5209673      12.229436    
     30200   3.0702636      0.8655358      0              5.4686825      11.527409    
     30300   2.9826379      0.87270029     0              5.3444726      11.537644    
     30400   2.9540794      0.94844105     0              5.3773965      12.126645    
     30500   3.0210146      1.0695937      0              5.5989029      13.067503    
     30600   3.0431013      1.0016763      0              5.5640994      12.682338    
     30700   2.9426601      1.0352213      0              5.4470562      12.773439    
     30800   2.9741929      0.94474315     0              5.4038541      12.090289    
     30900   3.0027972      0.9422394      0              5.4442358      12.040271    
     31000   3.1716349      0.90540516     0              5.6605346      11.944477    
     31100   3.0891954      1.0257956      0              5.657326       12.804641    
     31200   3.0584418      0.91616603     0              5.5015886      11.981859    
     31300   2.9656394      0.98159718     0              5.4278842      12.299668    
     31400   2.9879265      0.91338181     0              5.3930832      11.962208    
     31500   3.0182441      0.90038274     0              5.4255383      11.886744    
     31600   3.0234585      1.0163231      0              5.5492964      12.754755    
     31700   3.0931156      0.9817445      0              5.6191524      12.462162    
     31800   2.9622442      0.98175115     0              5.4229478      12.477336    
     31900   2.975281       0.88271295     0              5.3434553      11.745289    
     32000   2.9704479      0.97213721     0              5.4256334      12.202414    
     32100   3.0575926      0.92828785     0              5.5124373      12.095812    
     32200   3.0342209      0.91461764     0              5.4637266      11.991077    
     32300   2.8677771      0.93691324     0              5.2364784      12.088474    
     32400   2.8925953      0.9245864      0              5.2613607      11.806043    
     32500   2.9685814      0.93328414     0              5.383982       12.081076    
     32600   3.0326835      0.93861983     0              5.4854238      12.134004    
     32700   2.9849336      1.0246751      0              5.4998892      12.758471    
     32800   2.983113       0.93930962     0              5.4117943      12.135277    
     32900   2.8877997      0.95710969     0              5.2866942      12.1042      
     33000   2.9810399      0.90949324     0              5.3788697      11.850728    
     33100   3.028663       1.0178994      0              5.5586756      12.597906    
     33200   3.0819055      0.88297432     0              5.5035753      11.663093    
     33300   2.9768265      0.90607494     0              5.3691344      11.616614    
     33400   2.9205528      0.98161991     0              5.36031        12.386324    
     33500   2.9929731      0.97483176     0              5.4620993      12.33369     
     33600   3.0014067      1.0065421      0              5.5064538      12.46039     
     33700   3.0131175      0.94781449     0              5.4652838      12.037129    
     33800   2.9677335      0.98525187     0              5.4346785      12.439869    
     33900   2.988507       0.96130947     0              5.4418811      12.352593    
     34000   3.0207471      0.97383205     0              5.5027403      12.325558    
     34100   3.051576       0.99017399     0              5.565303       12.6194      
     34200   2.9772642      0.9844071      0              5.4481228      12.491473    
     34300   2.9071689      0.97324462     0              5.3318687      12.268824    
     34400   2.9754961      0.94904163     0              5.4101065      12.188147    
     34500   3.0862157      0.91905089     0              5.546114       12.023083    
     34600   3.0291962      0.97805624     0              5.5196318      12.359018    
     34700   2.9745655      0.99200903     0              5.4516786      12.456369    
     34800   3.0194934      0.89060764     0              5.4176362      11.702347    
     34900   3.002194       0.88823911     0              5.3893313      11.823919    
     35000   2.9426657      1.0014015      0              5.4132448      12.584768    
     35100   3.05412        0.99154625     0              5.5704894      12.515922    
     35200   3.0860409      0.95959921     0              5.5864002      12.312809    
     35300   2.9707821      0.94586561     0              5.3998628      12.107145    
     35400   2.9586903      0.92709002     0              5.3629585      12.111847    
     35500   2.9697511      0.98000805     0              5.4324595      12.278844    
     35600   3.0515747      0.91177202     0              5.4868991      11.801377    
     35700   3.0132967      0.91950672     0              5.4372447      11.930637    
     35800   2.9279818      0.86738819     0              5.2572164      11.491934    
     35900   2.9312956      0.92539086     0              5.3201873      11.85605     
     36000   3.0281549      0.94199599     0              5.4820104      12.198925    
     36100   3.0421544      0.93394747     0              5.4949509      12.16776     
     36200   2.9463709      1.0003978      0              5.4177961      12.57723     
     36300   2.914924       0.93620583     0              5.3064569      12.03499     
     36400   2.9001657      0.90127496     0              5.2493994      11.904464    
     36500   2.9660453      1.0200643      0              5.4669599      12.805778    
     36600   3.0871775      0.90456293     0              5.5330681      11.894306    
     36700   2.9763264      0.99199689     0              5.4543066      12.462625    
     36800   2.9259081      0.96914144     0              5.3558607      12.273317    
     36900   2.9631686      0.89719151     0              5.3397741      11.847079    
     37000   3.0464064      0.95430318     0              5.5216816      12.127475    
     37100   3.070338       0.97640126     0              5.5796594      12.358262    
     37200   2.9942833      0.9352328      0              5.4244646      12.114986    
     37300   2.9010782      1.0008388      0              5.3503312      12.4579      
     37400   3.0045526      0.90953016     0              5.4141585      11.875967    
     37500   2.9803129      1.0285397      0              5.4968262      12.959291    
     37600   3.0399331      0.96527381     0              5.5229469      12.258577    
     37700   2.9957915      0.99062923     0              5.4821222      12.498049    
     37800   3.0030102      0.93513203     0              5.4374478      12.009259    
     37900   2.9797889      0.92738071     0              5.3948815      11.964428    
     38000   2.9721664      0.96375194     0              5.4198246      12.180236    
     38100   3.0103423      1.0346713      0              5.5479798      12.866871    
     38200   3.0315923      1.0311092      0              5.5762773      12.891218    
     38300   2.9820026      0.92816126     0              5.398981       12.073629    
     38400   2.9204062      0.97679951     0              5.3552698      12.316791    
     38500   2.9710845      0.97358767     0              5.4280384      12.421066    
     38600   3.0075763      0.96944658     0              5.4786082      12.263907    
     38700   2.9550848      1.0622773      0              5.4927402      12.879701    
     38800   2.9925418      0.98694417     0              5.473565       12.346318    
     38900   3.0077127      0.9279138      0              5.43728        11.958467    
     39000   2.9705635      0.97207459     0              5.4257442      12.457415    
     39100   3.024399       0.92413505     0              5.4585184      12.169562    
     39200   3.0205858      0.95597472     0              5.4846411      12.208463    
     39300   3.0335253      0.98065404     0              5.5287202      12.492267    
     39400   3.0702059      0.90828693     0              5.5113471      11.929246    
     39500   2.9599536      0.93071197     0              5.3684744      11.985716    
     39600   2.9296985      0.94378979     0              5.3361918      12.058409    
     39700   3.0407908      0.93297741     0              5.4919364      12.071766    
     39800   3.0902716      0.91747511     0              5.5506191      12.052193    
     39900   3.0601784      0.88446118     0              5.4724874      11.700432    
     40000   2.9836832      0.95753704     0              5.4308765      12.249408    
     40100   3.043512       0.89445995     0              5.4574988      11.774705    
     40200   3.0394262      0.95650918     0              5.5134223      12.247857    
     40300   3.0473127      1.0100345      0              5.5787716      12.651074    
     40400   3.0401659      0.91488792     0              5.47291        12.059944    
     40500   2.9901722      0.85410451     0              5.3371728      11.374004    
     40600   2.9365424      0.96377453     0              5.3664374      12.267951    
     40700   3.0416866      0.96517375     0              5.5254758      12.506672    
     40800   3.0488687      0.95586382     0              5.5269339      12.361625    
     40900   3.0023139      0.96222869     0              5.4635005      12.375195    
     41000   3.0066967      0.92761248     0              5.4354554      12.051841    
     41100   3.0068444      0.91374435     0              5.4218087      11.991956    
     41200   2.9979656      0.94288188     0              5.4376345      12.083046    
     41300   3.0235615      0.93950138     0              5.4726291      12.069421    
     41400   2.9649905      0.98626372     0              5.4315778      12.411281    
     41500   3.0032772      0.88577216     0              5.3884883      11.766267    
     41600   3.004429       0.86232794     0              5.3667709      11.484821    
     41700   3.0138132      0.93960539     0              5.4581178      12.109904    
     41800   3.0963632      0.94751005     0              5.5897869      12.150497    
     41900   3.0071154      1.0065         0              5.5149707      12.577581    
     42000   2.9228492      0.95239439     0              5.3345274      11.971769    
     42100   2.9610809      0.90775916     0              5.3472117      11.81522     
     42200   2.9940298      0.9251456      0              5.4139975      12.138165    
     42300   3.03397        0.93737326     0              5.4861061      12.08219     
     42400   3.0617726      0.92553814     0              5.5159545      12.007822    
     42500   3.0284289      0.86154404     0              5.4019693      11.516399    
     42600   2.8884003      0.93634417     0              5.2668291      12.109345    
     42700   2.9696787      0.93764788     0              5.3899908      12.005296    
     42800   3.0409023      0.94138372     0              5.5005099      12.128652    
     42900   2.9738764      1.0130201      0              5.4716566      12.729059    
     43000   3.007166       0.92395637     0              5.4325029      11.915214    
     43100   2.922659       0.94263611     0              5.3244839      12.076753    
     43200   2.8932661      0.95363305     0              5.291413       12.080537    
     43300   3.0175889      0.95342207     0              5.4775953      12.128873    
     43400   3.0617784      0.95077346     0              5.5411985      12.224402    
     43500   3.0375958      0.89385755     0              5.4480265      11.887557    
     43600   2.9700825      0.87913648     0              5.3320849      11.561461    
     43700   2.9435799      0.94807202     0              5.3612859      12.104582    
     43800   3.096039       0.92965422     0              5.5714452      12.020269    
     43900   3.0833972      0.96440321     0              5.5872406      12.35161     
     44000   3.0222622      0.92440036     0              5.4555802      11.98096     
     44100   2.980039       0.88222438     0              5.3501003      11.724413    
     44200   2.9624621      0.94501752     0              5.386541       11.961952    
     44300   3.0870089      0.92264743     0              5.5508998      12.146002    
     44400   3.1091741      0.8986415      0              5.5601254      11.886557    
     44500   2.9612188      1.002847       0              5.4425064      12.622963    
     44600   3.0007041      0.93460566     0              5.433464       12.047591    
     44700   2.9864628      0.98648023     0              5.4639871      12.49491     
     44800   3.0304382      0.94466381     0              5.4881015      12.176272    
     44900   2.9472608      0.93281734     0              5.35155        12.039951    
     45000   2.9231322      0.89730872     0              5.2798661      11.791413    
     45100   3.0303524      0.90895174     0              5.4522608      11.898435    
     45200   3.0563403      0.94962207     0              5.5318939      12.299931    
     45300   3.0228059      0.93830911     0              5.4703039      12.051993    
     45400   2.9473205      0.95953273     0              5.3783547      12.105339    
     45500   2.9678217      0.9421692      0              5.3917281      12.138189    
     45600   3.1061846      0.98470839     0              5.6417103      12.66981     
     45700   3.0805923      0.98394125     0              5.6025734      12.439745    
     45800   3.0347658      0.88812938     0              5.4380554      11.795808    
     45900   2.9847793      0.90790454     0              5.3828873      11.969362    
     46000   3.0389657      0.89700612     0              5.4532289      11.930682    
     46100   3.0474341      1.0205229      0              5.589442       12.676584    
     46200   3.1442846      0.95123782     0              5.6653618      12.339843    
     46300   2.9770256      0.97143234     0              5.4347903      12.219387    
     46400   2.9292689      0.96588845     0              5.3576463      12.407945    
     46500   3.0207176      0.89983844     0              5.4287024      11.718501    
     46600   3.0502353      0.9571585      0              5.5302775      12.321793    
     46700   3.0409208      0.93851203     0              5.4976659      11.965659    
     46800   2.9248578      0.90468803     0              5.2898324      11.817638    
     46900   2.971466       0.86345732     0              5.3184799      11.394294    
     47000   2.9982379      0.93870837     0              5.4338692      12.063397    
     47100   3.0339612      0.93246442     0              5.481184       12.032563    
     47200   3.0309582      0.91272854     0              5.4569459      11.831618    
     47300   2.9411241      1.0038318      0              5.4133638      12.533239    
     47400   3.0241511      0.89858091     0              5.4325926      11.758236    
     47500   3.0618047      0.98002255     0              5.5704871      12.540251    
     47600   3.1060939      0.9708974      0              5.6277632      12.321421    
     47700   2.9808684      0.97195487     0              5.4410742      12.213352    
     47800   2.9601732      0.92780027     0              5.365892       12.062135    
     47900   2.9658849      0.96098084     0              5.4076359      12.224918    
     48000   3.0361033      1.0191082      0              5.5710395      12.91751     
     48100   3.0791486      0.98469717     0              5.6011649      12.491793    
     48200   2.9985227      0.95157974     0              5.4471676      12.257732    
     48300   3.0222329      0.89459384     0              5.4257296      11.735905    
     48400   2.9921345      0.93931728     0              5.4253275      12.149298    
     48500   3.0651175      0.8833031      0              5.4787345      11.720228    
     48600   3.0427633      0.9582896      0              5.5202059      12.267389    
     48700   2.971675       0.94957861     0              5.4049145      12.224612    
     48800   2.9452496      0.87342935     0              5.2891466      11.510096    
     48900   2.9438013      0.96314852     0              5.3766944      12.179341    
     49000   3.0586157      0.96098086     0              5.5466643      12.315481    
     49100   3.0260772      0.97322484     0              5.5101243      12.32397     
     49200   2.9621215      0.99202775     0              5.4330405      12.455575    
     49300   3.0108335      0.88089651     0              5.3949416      11.555417    
     49400   2.9477504      0.97089742     0              5.390364       12.224709    
     49500   3.0219143      1.0161873      0              5.5468455      12.686814    
     49600   3.0980068      0.94313473     0              5.5878759      12.303246    
     49700   3.006586       0.91292459     0              5.4206015      12.003128    
     49800   2.9568914      0.92117429     0              5.3543457      11.937824    
     49900   2.9673938      0.97004803     0              5.4189653      12.305724    
     50000   3.0623143      0.91491129     0              5.5061398      11.959195    
Loop time of 9.36019 on 1 procs for 50000 steps with 2048 atoms

Performance: 923058.646 tau/day, 5341.775 timesteps/s, 10.940 Matom-step/s
99.7% CPU use with 1 MPI tasks x 1 OpenMP threads

MPI task timing breakdown:
Section |  min time  |  avg time  |  max time  |%varavg| %total
---------------------------------------------------------------
Pair    | 3.384      | 3.384      | 3.384      |   0.0 | 36.15
Neigh   | 3.9115     | 3.9115     | 3.9115     |   0.0 | 41.79
Comm    | 0.47257    | 0.47257    | 0.47257    |   0.0 |  5.05
Output  | 0.0074529  | 0.0074529  | 0.0074529  |   0.0 |  0.08
Modify  | 1.2684     | 1.2684     | 1.2684     |   0.0 | 13.55
Other   |            | 0.3163     |            |       |  3.38

Nlocal:           2048 ave        2048 max        2048 min
Histogram: 1 0 0 0 0 0 0 0 0 0
Nghost:           1407 ave        1407 max        1407 min
Histogram: 1 0 0 0 0 0 0 0 0 0
Neighs:           7456 ave        7456 max        7456 min
Histogram: 1 0 0 0 0 0 0 0 0 0

Total # of neighbors = 7456
Ave neighs/atom = 3.640625
Neighbor list builds = 4728
Dangerous builds = 0

unfix 1
dump           1 all atom ${run_steps} 3dWCA_T${final_temperature}_d${density}_N${run_steps}.lammpstrj
dump           1 all atom 100000 3dWCA_T${final_temperature}_d${density}_N${run_steps}.lammpstrj
dump           1 all atom 100000 3dWCA_T0.1_d${density}_N${run_steps}.lammpstrj
dump           1 all atom 100000 3dWCA_T0.1_d0.8_N${run_steps}.lammpstrj
dump           1 all atom 100000 3dWCA_T0.1_d0.8_N100000.lammpstrj
dump           2 all dcd ${thermo_time} 3dWCA_T${final_temperature}_d${density}_N${run_steps}.dcd
dump           2 all dcd 100 3dWCA_T${final_temperature}_d${density}_N${run_steps}.dcd
dump           2 all dcd 100 3dWCA_T0.1_d${density}_N${run_steps}.dcd
dump           2 all dcd 100 3dWCA_T0.1_d0.8_N${run_steps}.dcd
dump           2 all dcd 100 3dWCA_T0.1_d0.8_N100000.dcd
fix 1 all nvt temp ${initial_temperature} ${final_temperature} ${tau}
fix 1 all nvt temp 3 ${final_temperature} ${tau}
fix 1 all nvt temp 3 0.1 ${tau}
fix 1 all nvt temp 3 0.1 0.2

run ${run_steps}
run 100000
Generated 0 of 0 mixed pair_coeff terms from geometric mixing rule
Per MPI rank memory allocation (min/avg/max) = 3.325 | 3.325 | 3.325 Mbytes
   Step          Temp          E_pair         E_mol          TotEng         Press     
     50000   3.0623143      0.91491129     0              5.5061398      11.959195    
     50100   3.0018393      0.95868097     0              5.4592413      12.068898    
     50200   2.9380607      0.89488478     0              5.2998239      11.65863     
     50300   2.8970534      0.89267216     0              5.2361303      11.651224    
     50400   3.0472665      0.91042696     0              5.4790948      11.873691    
     50500   3.0209954      0.95277501     0              5.4820555      12.236429    
     50600   2.9542436      0.95761565     0              5.3868173      12.239579    
     50700   2.932853       0.93683568     0              5.3339671      12.136549    
     50800   2.9493232      0.99941683     0              5.4212414      12.585489    
     50900   3.0570362      0.98686892     0              5.5701841      12.387366    
     51000   3.002266       0.94147141     0              5.4426714      12.210488    
     51100   2.9184465      0.94480721     0              5.3203394      12.050834    
     51200   2.9942083      0.87115771     0              5.3602772      11.696607    
     51300   2.9987729      0.93340369     0              5.4293667      12.011297    
     51400   2.9758824      0.95406461     0              5.4157087      12.197389    
     51500   2.8666602      0.93928013     0              5.2371708      12.005002    
     51600   2.9056521      0.8613494      0              5.2176993      11.520865    
     51700   3.0145733      0.84085966     0              5.3605116      11.342296    
     51800   2.9656567      0.95180766     0              5.3981207      12.167829    
     51900   2.9557325      0.94462244     0              5.3760563      12.146344    
     52000   2.8952086      0.98292307     0              5.3236154      12.215542    
     52100   2.9241424      0.90977884     0              5.2938507      11.899642    
     52200   2.9445899      0.91289622     0              5.3276244      11.660372    
     52300   2.9944964      0.90220388     0              5.3917552      11.881242    
     52400   2.9694995      0.89882518     0              5.3508995      11.861327    
     52500   2.903742       0.86986784     0              5.223354       11.437269    
     52600   2.8378343      0.96331783     0              5.2179908      12.233038    
     52700   3.0022218      0.92473878     0              5.4258726      11.94473     
     52800   2.9763372      0.95776053     0              5.4200864      12.196274    
     52900   2.931032       0.92743479     0              5.3218361      12.012693    
     53000   2.945418       0.84785508     0              5.2638248      11.392164    
     53100   2.8687223      0.93461343     0              5.2355958      11.922306    
     53200   2.9664254      0.85988874     0              5.3073542      11.541953    
     53300   2.9648198      1.0100406      0              5.4550988      12.629252    
     53400   2.9183983      0.95653463     0              5.3319946      12.204624    
     53500   2.8784304      0.88359416     0              5.1991315      11.678966    
     53600   2.8911721      0.85764397     0              5.1922845      11.505472    
     53700   2.90438        0.9198786      0              5.2743214      12.006385    
     53800   2.9698388      0.94550352     0              5.3980865      12.191243    
     53900   2.980165       0.84935098     0              5.3174157      11.388957    
     54000   2.8235705      0.87863461     0              5.1119223      11.517753    
     54100   2.8048037      0.93653797     0              5.1416893      12.017774    
     54200   2.9137293      0.91031038     0              5.2787703      11.720627    
     54300   2.9227517      0.93130182     0              5.3132887      12.01795     
     54400   2.8735261      0.88506577     0              5.1932503      11.532825    
     54500   2.7230618      0.95609174     0              5.0386899      12.056651    
     54600   2.856233       0.84322761     0              5.1254852      11.383794    
     54700   2.9075253      0.83973918     0              5.1988976      11.204024    
     54800   2.8446014      0.94520861     0              5.2100272      12.109634    
     54900   2.8593726      0.90767656     0              5.1946412      11.681499    
     55000   2.8124962      0.90098004     0              5.1176643      11.654761    
     55100   2.786166       0.88243392     0              5.0596423      11.612209    
     55200   2.8618015      0.8798125      0              5.1704188      11.592804    
     55300   2.8947687      0.95374692     0              5.2937798      12.097843    
     55400   2.8507781      0.93582872     0              5.2099078      11.970715    
     55500   2.8432913      0.86181571     0              5.1246702      11.325081    
     55600   2.8193194      0.88081726     0              5.1077315      11.437846    
     55700   2.8249086      0.8886564      0              5.1239502      11.610027    
     55800   2.8669791      0.88635111     0              5.1847198      11.650005    
     55900   2.8684127      0.96670598     0              5.2672242      12.104583    
     56000   2.885352       0.89745634     0              5.223371       11.675441    
     56100   2.818659       0.81966242     0              5.0455865      11.062131    
     56200   2.7711047      0.84594139     0              5.0005687      11.328858    
     56300   2.8322674      0.86108385     0              5.1074105      11.373864    
     56400   2.862356       0.9148612      0              5.2062988      11.921747    
     56500   2.8367383      0.89528528     0              5.148315       11.584485    
     56600   2.787345       0.90532641     0              5.0843023      11.685363    
     56700   2.820514       0.85941548     0              5.0881207      11.39568     
     56800   2.8484252      0.82767903     0              5.0982306      11.154186    
     56900   2.8138708      0.81885287     0              5.0375982      11.033607    
     57000   2.7157713      0.85174814     0              4.923416       11.208678    
     57100   2.7648916      0.8532439      0              4.9985562      11.311715    
     57200   2.8580011      0.88480631     0              5.1697147      11.555355    
     57300   2.8315162      0.86946103     0              5.1146614      11.476513    
     57400   2.7612653      0.87134164     0              5.0112172      11.503578    
     57500   2.7564297      0.85087885     0              4.9835045      11.168068    
     57600   2.8357741      0.84607494     0              5.0976591      11.207071    
     57700   2.8774995      0.94561969     0              5.2597614      12.1644      
     57800   2.8078293      0.92779133     0              5.1374787      11.759444    
     57900   2.7655656      0.87973345     0              5.0260562      11.408153    
     58000   2.7235728      0.87896538     0              4.9623297      11.468335    
     58100   2.7109467      0.93949207     0              5.0039266      11.82593     
     58200   2.8574077      0.84608429     0              5.1301031      11.274722    
     58300   2.8140514      0.90262961     0              5.1216456      11.801777    
     58400   2.679528       0.89981589     0              4.9171453      11.479141    
     58500   2.7229114      0.84501182     0              4.9273847      11.168089    
     58600   2.7428844      0.90302141     0              5.015339       11.594076    
     58700   2.8279702      0.83995978     0              5.0798438      11.364173    
     58800   2.7388229      0.85656292     0              4.9627913      11.239207    
     58900   2.6711894      0.84222216     0              4.8470498      11.004539    
     59000   2.7302634      0.84541602     0              4.9388114      11.154384    
     59100   2.7552261      0.90306346     0              5.0338846      11.59642     
     59200   2.7389141      0.87310014     0              4.9794652      11.496914    
     59300   2.6927479      0.8544955      0              4.8916452      11.392442    
     59400   2.6475247      0.77850279     0              4.7478507      10.66368     
     59500   2.6254002      0.79688622     0              4.7330636      10.773       
     59600   2.746791       0.80347739     0              4.921652       10.874294    
     59700   2.7569195      0.85276831     0              4.9861283      11.213626    
     59800   2.7528994      0.83295357     0              4.9602863      11.01017     
     59900   2.6997186      0.78818585     0              4.8357864      10.60836     
     60000   2.6080911      0.86410816     0              4.7743345      11.344119    
     60100   2.7235844      0.88847067     0              4.9718524      11.496374    
     60200   2.7434788      0.89998985     0              5.0131986      11.607578    
     60300   2.682406       0.8835548      0              4.9051992      11.421125    
     60400   2.6644003      0.84684359     0              4.8414926      11.168433    
     60500   2.6935522      0.79086964     0              4.8292251      10.693705    
     60600   2.7009893      0.84729408     0              4.8967998      11.19002     
     60700   2.7401636      0.86609172     0              4.9743301      11.474858    
     60800   2.7432348      0.77904923     0              4.8918921      10.649756    
     60900   2.6211549      0.82855299     0              4.7583655      11.017494    
     61000   2.6505204      0.81840009     0              4.7922394      10.899964    
     61100   2.7076884      0.83135766     0              4.8909071      11.065641    
     61200   2.684609       0.87351353     0              4.8984608      11.413837    
     61300   2.6981171      0.82248261     0              4.8676821      10.895984    
     61400   2.6697933      0.82834467     0              4.8310793      11.017989    
     61500   2.6433013      0.79849794     0              4.7615139      10.743346    
     61600   2.5807356      0.78790073     0              4.6571139      10.618882    
     61700   2.6001466      0.83394432     0              4.7322598      10.988044    
     61800   2.6985566      0.83497118     0              4.8808296      11.070991    
     61900   2.6725452      0.85022725     0              4.8570876      11.185572    
     62000   2.62495        0.83387096     0              4.7693734      10.882222    
     62100   2.6120001      0.77413594     0              4.6902231      10.513175    
     62200   2.6207207      0.80220162     0              4.7313632      10.685533    
     62300   2.6838664      0.85718601     0              4.8810199      11.315059    
     62400   2.634966       0.93588481     0              4.8864039      11.804821    
     62500   2.6499836      0.77548476     0              4.7485193      10.493142    
     62600   2.5897773      0.78690954     0              4.6696786      10.677926    
     62700   2.6070922      0.81659525     0              4.7253241      10.958491    
     62800   2.651886       0.79950696     0              4.7753937      10.731221    
     62900   2.6382609      0.82382432     0              4.7792834      10.894875    
     63000   2.5793961      0.81716005     0              4.684365       11.063764    
     63100   2.5424745      0.72322575     0              4.5350753      10.152265    
     63200   2.5797482      0.79383277     0              4.6615656      10.607439    
     63300   2.599458       0.86116595     0              4.7584491      11.14136     
     63400   2.6204481      0.8252667      0              4.7540195      10.991145    
     63500   2.6045365      0.7699072      0              4.6748044      10.485898    
     63600   2.532507       0.81886022     0              4.6157658      10.795877    
     63700   2.6263001      0.76249575     0              4.7000224      10.43822     
     63800   2.6939907      0.80893997     0              4.8479529      10.78552     
     63900   2.6151814      0.85112504     0              4.7719818      11.113487    
     64000   2.6464041      0.70765658     0              4.6753244      10.097775    
     64100   2.5591609      0.81265431     0              4.6495212      10.806749    
     64200   2.571425       0.81628776     0              4.6715418      10.803606    
     64300   2.6162855      0.77139196     0              4.693904       10.4996      
     64400   2.5577914      0.79081292     0              4.6256266      10.63796     
     64500   2.4993383      0.76905991     0              4.5162368      10.374993    
     64600   2.5146688      0.83803013     0              4.6081915      10.824433    
     64700   2.6140305      0.8105166      0              4.7296478      10.672576    
     64800   2.5706385      0.8500971      0              4.7041721      11.009633    
     64900   2.5582035      0.77591838     0              4.6113499      10.540016    
     65000   2.516287       0.80773574     0              4.5803233      10.686689    
     65100   2.5908858      0.85678456     0              4.7412157      11.197475    
     65200   2.6806343      0.80152993     0              4.820518       10.714739    
     65300   2.6067241      0.74226698     0              4.6504438      10.385826    
     65400   2.5136609      0.78033317     0              4.5489834      10.612127    
     65500   2.5336093      0.79257436     0              4.5911326      10.710802    
     65600   2.5722618      0.81588762     0              4.6723963      10.828884    
     65700   2.5909985      0.77079335     0              4.6553934      10.544648    
     65800   2.5011992      0.72972261     0              4.4796895      10.192781    
     65900   2.4883609      0.75183347     0              4.4825523      10.255129    
     66000   2.5179788      0.8286642      0              4.6037882      10.890877    
     66100   2.5454635      0.81395269     0              4.6302836      10.804179    
     66200   2.5619577      0.75623206     0              4.5972922      10.425857    
     66300   2.5286304      0.7510744      0              4.542168       10.398361    
     66400   2.5182818      0.7334772      0              4.5090554      10.044358    
     66500   2.4707165      0.74815818     0              4.4524233      10.200053    
     66600   2.4522598      0.80568835     0              4.4822819      10.735368    
     66700   2.5624178      0.77016273     0              4.6119126      10.497737    
     66800   2.5813596      0.76792571     0              4.6380744      10.529493    
     66900   2.4986371      0.77961403     0              4.5257396      10.570905    
     67000   2.4448748      0.76814        0              4.4336615      10.348357    
     67100   2.4663096      0.77396751     0              4.4716255      10.357542    
     67200   2.4684164      0.83804063     0              4.5388574      10.908271    
     67300   2.5220388      0.76736102     0              4.548572       10.367332    
     67400   2.5129547      0.73944676     0              4.5070383      10.130879    
     67500   2.4381944      0.78962847     0              4.4451342      10.571327    
     67600   2.445827       0.78214883     0              4.4490979      10.400216    
     67700   2.5165358      0.82334576     0              4.5963063      10.849554    
     67800   2.5751172      0.75183606     0              4.6126258      10.296107    
     67900   2.4614233      0.78241121     0              4.4727433      10.454108    
     68000   2.5015344      0.70192759     0              4.4523969      9.8790802    
     68100   2.4578483      0.76850476     0              4.453477       10.342025    
     68200   2.4938477      0.74134245     0              4.4802875      10.245111    
     68300   2.5219938      0.78796908     0              4.5691126      10.588106    
     68400   2.5453294      0.7622199      0              4.5783498      10.466451    
     68500   2.454026       0.72980233     0              4.409044       9.9804803    
     68600   2.406678       0.76424965     0              4.372504       10.245651    
     68700   2.4539684      0.76199433     0              4.4411496      10.216602    
     68800   2.5226873      0.72458802     0              4.5067714      10.138776    
     68900   2.4901209      0.74385293     0              4.4772104      10.242537    
     69000   2.4267485      0.6963308      0              4.3346762      9.7511109    
     69100   2.4112389      0.71874453     0              4.3338369      9.9156671    
     69200   2.4663319      0.75524152     0              4.452933       10.274504    
     69300   2.4694372      0.80972038     0              4.5120675      10.596691    
     69400   2.4999724      0.68765376     0              4.4357814      9.7404427    
     69500   2.3890775      0.72695138     0              4.3088179      10.0403      
     69600   2.4258323      0.69038938     0              4.3273611      9.6829543    
     69700   2.4201614      0.77615837     0              4.4046278      10.414649    
     69800   2.4797052      0.73514336     0              4.452885       10.105437    
     69900   2.3967244      0.78483511     0              4.3781664      10.483016    
     70000   2.3722203      0.73349212     0              4.2900851      10.075597    
     70100   2.3843875      0.76497841     0              4.3398133      10.260784    
     70200   2.5255821      0.72294795     0              4.5094714      10.114839    
     70300   2.4493855      0.7708245      0              4.4431088      10.36577     
     70400   2.4160245      0.7376671      0              4.3599343      10.005508    
     70500   2.3800015      0.75083985     0              4.3190989      10.155364    
     70600   2.4016806      0.70311684     0              4.3038787      9.8008275    
     70700   2.367591       0.73819793     0              4.2878503      10.095387    
     70800   2.3697433      0.75713221     0              4.3100115      10.170194    
     70900   2.4641385      0.69610055     0              4.3905034      9.7868665    
     71000   2.4675952      0.69179008     0              4.3913756      9.7321095    
     71100   2.3251852      0.75134555     0              4.2374204      10.092455    
     71200   2.3076092      0.75911856     0              4.2188421      10.11314     
     71300   2.3595777      0.75531809     0              4.2929565      10.182597    
     71400   2.4154305      0.70865559     0              4.3300322      10.000308    
     71500   2.3802811      0.74188978     0              4.3105681      10.137324    
     71600   2.3749118      0.73171232     0              4.2923406      9.9750419    
     71700   2.3755784      0.71692031     0              4.278548       9.9492053    
     71800   2.377977       0.68726416     0              4.252488       9.6166451    
     71900   2.3137954      0.7122107      0              4.1812091      9.7918854    
     72000   2.2993625      0.72228764     0              4.1696472      9.9063941    
     72100   2.396256       0.70994471     0              4.3025737      9.8673002    
     72200   2.3952866      0.73841886     0              4.3295943      9.9959295    
     72300   2.3487675      0.6935616      0              4.2149925      9.5362595    
     72400   2.3020976      0.70637259     0              4.1578329      9.7675843    
     72500   2.3363551      0.69682099     0              4.1996424      9.8564393    
     72600   2.3560328      0.72848124     0              4.2608049      9.9465478    
     72700   2.3599301      0.71435106     0              4.2525178      9.9738015    
     72800   2.2963275      0.69678541     0              4.1395948      9.7628112    
     72900   2.2579413      0.67790675     0              4.063165       9.5162655    
     73000   2.296359       0.76783349     0              4.2106901      10.156752    
     73100   2.3449106      0.73979476     0              4.2554432      10.099423    
     73200   2.3444918      0.70330378     0              4.2183243      9.6551116    
     73300   2.2730113      0.72347419     0              4.1313264      9.8091837    
     73400   2.2806016      0.6561548      0              4.0753868      9.2567854    
     73500   2.3103544      0.73416846     0              4.1980079      9.909348     
     73600   2.4038443      0.68297194     0              4.2869778      9.6917345    
     73700   2.3088102      0.73025837     0              4.1917826      9.8512542    
     73800   2.2685779      0.70293623     0              4.1041416      9.6537214    
     73900   2.2917239      0.6718936      0              4.1078009      9.4567228    
     74000   2.3282567      0.69078809     0              4.1814679      9.4743856    
     74100   2.3168744      0.73155476     0              4.2051694      9.9848682    
     74200   2.3165145      0.69948095     0              4.172556       9.8028351    
     74300   2.297862       0.69356707     0              4.138677       9.6243505    
     74400   2.2965061      0.64025018     0              4.0833273      9.1542814    
     74500   2.2478322      0.69056462     0              4.0606666      9.5858352    
     74600   2.312662       0.7025369      0              4.169836       9.6940013    
     74700   2.35997        0.70101911     0              4.2392455      9.8206666    
     74800   2.3035203      0.65769893     0              4.1112922      9.3869174    
     74900   2.2532161      0.68294823     0              4.0611221      9.5136051    
     75000   2.270445       0.6984874      0              4.102492       9.6986201    
     75100   2.3273539      0.67316313     0              4.1624893      9.5436689    
     75200   2.2958788      0.67905697     0              4.1211937      9.5853071    
     75300   2.1823484      0.70752817     0              3.9794524      9.6819846    
     75400   2.238735       0.64935339     0              4.0058162      9.2053351    
     75500   2.2766508      0.66917045     0              4.0824792      9.3936283    
     75600   2.2852303      0.6655305      0              4.0917022      9.5358694    
     75700   2.2948983      0.64211004     0              4.0827766      9.1724149    
     75800   2.2599968      0.63011031     0              4.0184503      9.0210108    
     75900   2.1946668      0.60902365     0              3.8994165      8.8762735    
     76000   2.2165671      0.6313877      0              3.9546149      9.1425949    
     76100   2.2635387      0.70594756     0              4.0995977      9.7251954    
     76200   2.2805054      0.65433663     0              4.0734245      9.3243668    
     76300   2.1938908      0.6956568      0              3.9848862      9.6642837    
     76400   2.225421       0.66700642     0              4.003508       9.359242     
     76500   2.3150774      0.63486167     0              4.1057822      9.1708631    
     76600   2.2842808      0.73972433     0              4.1644725      10.091204    
     76700   2.2294631      0.68337561     0              4.0259373      9.5809489    
     76800   2.2054045      0.63796747     0              3.944459       9.0788436    
     76900   2.2114965      0.66398616     0              3.9796111      9.4456828    
     77000   2.2617681      0.67438542     0              4.065381       9.4189466    
     77100   2.2497148      0.67683458     0              4.0497591      9.5290692    
     77200   2.1497882      0.65107404     0              3.8741818      9.2812989    
     77300   2.172398       0.6510823      0              3.9080882      9.2202539    
     77400   2.2498467      0.62953674     0              4.0026589      9.1581219    
     77500   2.2678637      0.61856702     0              4.0187015      8.9098548    
     77600   2.2234348      0.60015719     0              3.9336809      8.8215223    
     77700   2.1162388      0.6445905      0              3.8173987      9.1193067    
     77800   2.1420529      0.65958091     0              3.8710914      9.3207322    
     77900   2.1809843      0.64304401     0              3.912923       8.9795383    
     78000   2.1788764      0.67859643     0              3.9453152      9.4553472    
     78100   2.2155738      0.66685522     0              3.9885932      9.3365826    
     78200   2.1878231      0.68663576     0              3.9667679      9.5193096    
     78300   2.1631744      0.60228835     0              3.8454656      8.7727008    
     78400   2.1689795      0.57145761     0              3.8233383      8.5565681    
     78500   2.1356105      0.70056097     0              3.9024125      9.5626953    
     78600   2.188498       0.65582853     0              3.9369726      9.2479301    
     78700   2.1494353      0.68345733     0              3.906036       9.3865557    
     78800   2.1843976      0.58775769     0              3.8627541      8.6915213    
     78900   2.1148247      0.6344997      0              3.8051879      9.0522191    
     79000   2.1373802      0.64035056     0              3.8448554      9.0769103    
     79100   2.2132294      0.64906025     0              3.9672833      9.2222196    
     79200   2.1715096      0.67294006     0              3.928614       9.4086332    
     79300   2.1065905      0.67062164     0              3.8289645      9.1554647    
     79400   2.1285977      0.60345343     0              3.794791       8.6990517    
     79500   2.1665254      0.62200229     0              3.8702036      8.9362869    
     79600   2.2366069      0.68012148     0              4.0333936      9.5894504    
     79700   2.160134       0.68587017     0              3.924489       9.4920163    
     79800   2.1300237      0.62427935     0              3.8177549      9.0493519    
     79900   2.0871382      0.66126963     0              3.7904483      9.2012034    
     80000   2.1328515      0.66426809     0              3.8619832      9.2422734    
     80100   2.1844593      0.66336197     0              3.9384509      9.3392211    
     80200   2.1306367      0.64403167     0              3.8384261      9.1304204    
     80300   2.0511596      0.64379614     0              3.7190332      9.0713236    
     80400   2.103586       0.61144671     0              3.765285       8.799084     
     80500   2.1275486      0.65149674     0              3.8412614      9.2577417    
     80600   2.1312742      0.66037942     0              3.8557297      9.2427174    
     80700   2.0830253      0.60871886     0              3.7317311      8.8682305    
     80800   2.0213783      0.63913038     0              3.6697173      8.9132852    
     80900   2.0917256      0.60879468     0              3.7448511      8.8060592    
     81000   2.0994492      0.65822061     0              3.8058568      9.148218     
     81100   2.1245915      0.63943575     0              3.8247669      9.1169515    
     81200   2.0912059      0.63578263     0              3.7710599      8.9840728    
     81300   2.0206281      0.59660354     0              3.6260658      8.6334417    
     81400   1.9967131      0.66790689     0              3.6615141      9.1927558    
     81500   2.0915383      0.6120269      0              3.7478025      9.0174088    
     81600   2.092379       0.634488       0              3.771524       9.0381755    
     81700   2.1092317      0.57234911     0              3.7346517      8.4344863    
     81800   2.01733        0.63496539     0              3.6594829      8.8545169    
     81900   2.0057352      0.64458443     0              3.6517181      8.9964249    
     82000   2.1161074      0.60694786     0              3.7795591      8.8232606    
     82100   2.1360755      0.59510745     0              3.7976562      8.6708367    
     82200   2.0655733      0.59682723     0              3.6936743      8.6282785    
     82300   2.0677618      0.56423935     0              3.6643675      8.3789062    
     82400   2.0772099      0.5681987      0              3.6824922      8.4745859    
     82500   2.0633415      0.61526418     0              3.7087652      8.7575285    
     82600   2.0610136      0.64577059     0              3.7357814      9.0864502    
     82700   2.1016655      0.59372464     0              3.7446835      8.7895364    
     82800   2.0247798      0.60292192     0              3.6386086      8.5715937    
     82900   2.0199162      0.56824873     0              3.5966436      8.5203462    
     83000   2.0562617      0.59034274     0              3.6732293      8.5269605    
     83100   2.1069815      0.58067921     0              3.7396083      8.5772174    
     83200   2.0432381      0.61940583     0              3.6827664      8.8179795    
     83300   1.958898       0.60132375     0              3.5382359      8.6374334    
     83400   1.9919568      0.60408974     0              3.590566       8.6550387    
     83500   2.0553447      0.5861981      0              3.6677097      8.5028132    
     83600   2.0258543      0.64163883     0              3.6789364      9.034281     
     83700   2.0039667      0.61405702     0              3.6185393      8.7676899    
     83800   1.9214388      0.60031157     0              3.4810624      8.64149      
     83900   1.9716729      0.57970921     0              3.5357744      8.4647545    
     84000   2.0371371      0.56688613     0              3.6210998      8.393026     
     84100   2.0317465      0.60159413     0              3.6477258      8.782397     
     84200   2.0198082      0.57252519     0              3.6007581      8.4458047    
     84300   1.9513261      0.58259842     0              3.5081584      8.4908721    
     84400   1.9642064      0.62032824     0              3.5651993      8.6657596    
     84500   2.0649667      0.59973812     0              3.6956758      8.7314127    
     84600   2.039504       0.57019871     0              3.627961       8.4677296    
     84700   1.9880761      0.5647032      0              3.5453612      8.3483454    
     84800   1.9586676      0.58757152     0              3.5241384      8.525158     
     84900   1.993997       0.6055257      0              3.5950607      8.6176926    
     85000   2.0737137      0.60396373     0              3.7130154      8.6919866    
     85100   2.0110252      0.61633288     0              3.6313977      8.875453     
     85200   1.9821804      0.59938958     0              3.5712084      8.5518212    
     85300   1.9490129      0.61438205     0              3.5364739      8.7769777    
     85400   1.9514297      0.58116558     0              3.5068808      8.4862464    
     85500   1.9421475      0.56258064     0              3.4743794      8.3654646    
     85600   1.9340392      0.59474691     0              3.4943891      8.5627425    
     85700   1.991359       0.61076384     0              3.5963438      8.7407027    
     85800   2.0092152      0.58914051     0              3.6014917      8.5679556    
     85900   1.9481721      0.55503984     0              3.4758712      8.2066564    
     86000   1.9476358      0.53914563     0              3.4591728      8.0751278    
     86100   1.9324215      0.60236079     0              3.4995777      8.536425     
     86200   2.0013249      0.54781297     0              3.5483345      8.2540705    
     86300   1.9349726      0.59903186     0              3.5000735      8.5860826    
     86400   1.8899551      0.5430334      0              3.3765818      8.0617612    
     86500   1.9127357      0.55852203     0              3.4262246      8.2459777    
[...]
    128500   0.74255601     0.17580234     0              1.2890925      3.5891325    
    128600   0.72508149     0.16543669     0              1.2525279      3.4445133    
    128700   0.70966198     0.15918325     0              1.2231564      3.3489619    
    128800   0.71399211     0.15895072     0              1.2294159      3.3731192    
    128900   0.71844621     0.17187522     0              1.2490183      3.5402059    
    129000   0.73415945     0.16790162     0              1.2686031      3.5285286    
    129100   0.71595005     0.16025766     0              1.2336584      3.4008759    
    129200   0.69510192     0.15812832     0              1.2002721      3.3441452    
    129300   0.68315943     0.18441635     0              1.2086551      3.6409111    
    129400   0.71374902     0.16350316     0              1.2336039      3.3438575    
    129500   0.70477618     0.15142284     0              1.2080709      3.3099328    
    129600   0.67659961     0.15099254     0              1.1653964      3.2340835    
    129700   0.680931       0.15902203     0              1.1799198      3.3531095    
    129800   0.68907119     0.16933179     0              1.2024339      3.4856771    
    129900   0.69669138     0.16373393     0              1.2082607      3.3753653    
    130000   0.66684561     0.15709376     0              1.1568738      3.3459264    
    130100   0.65853236     0.16146723     0              1.1487834      3.3695246    
    130200   0.67661424     0.15268821     0              1.167114       3.3026486    
    130300   0.67640317     0.15901781     0              1.1731271      3.2996256    
    130400   0.66199435     0.14126759     0              1.1337743      3.119064     
    130500   0.64724263     0.14603764     0              1.1164275      3.0727072    
    130600   0.67003181     0.13470527     0              1.1392622      3.0009291    
    130700   0.66139926     0.15874974     0              1.1503642      3.3067942    
    130800   0.65322652     0.16326447     0              1.1426258      3.4120052    
    130900   0.65201449     0.15632201     0              1.1338662      3.2226698    
    131000   0.64332639     0.14375392     0              1.1082723      3.1546649    
    131100   0.62925933     0.13353106     0              1.0769592      2.9736924    
    131200   0.65087998     0.13155214     0              1.1073954      2.9890125    
    131300   0.6519914      0.14796641     0              1.125476       3.1803711    
    131400   0.6367358      0.15844223     0              1.1130796      3.275636     
    131500   0.63398532     0.14343469     0              1.0939483      3.1066314    
    131600   0.62777534     0.1444475      0              1.0856507      3.1237009    
    131700   0.63253615     0.14607327     0              1.0944142      3.1724378    
    131800   0.64497159     0.15568567     0              1.1226707      3.2546578    
    131900   0.64886857     0.12398807     0              1.0968157      2.861507     
    132000   0.60833108     0.14965256     0              1.0617036      3.1246409    
    132100   0.61398457     0.1418913      0              1.0624185      3.0637665    
    132200   0.62906893     0.13019254     0              1.0733352      2.9352556    
    132300   0.6198947      0.13759534     0              1.0669834      3.0700505    
    132400   0.5959559      0.13866093     0              1.0321583      2.9385567    
    132500   0.59837058     0.1326863      0              1.0298039      2.9591073    
    132600   0.61356792     0.13792847     0              1.057831       3.0362948    
    132700   0.61491903     0.15519119     0              1.0771193      3.2237863    
    132800   0.59327741     0.15857274     0              1.0480543      3.2598798    
    132900   0.5931593      0.12619209     0              1.0154966      2.8720497    
    133000   0.59358529     0.12406058     0              1.0140038      2.846478     
    133100   0.59726645     0.13434329     0              1.0298055      2.9453404    
    133200   0.60086559     0.12978961     0              1.0306479      2.8735869    
    133300   0.5738694      0.13340514     0              0.99378893     2.8956136    
    133400   0.57402068     0.12371097     0              0.98432156     2.7845624    
    133500   0.57822487     0.13001057     0              0.99692437     2.8313987    
    133600   0.59115905     0.13489945     0              1.021205       2.9557909    
    133700   0.60766142     0.13570233     0              1.0467494      2.9978635    
    133800   0.57876543     0.12918119     0              0.99690543     2.8772194    
    133900   0.56635991     0.12451334     0              0.97363839     2.7984505    
    134000   0.55843688     0.12394842     0              0.96119473     2.7842477    
    134100   0.56539741     0.11920076     0              0.96688277     2.6780182    
    134200   0.57394433     0.11807978     0              0.97857589     2.8091242    
    134300   0.56550555     0.11533035     0              0.96317449     2.6832287    
    134400   0.54196129     0.1179428      0              0.9304878      2.7278905    
    134500   0.54423313     0.12218881     0              0.9381399      2.7612342    
    134600   0.55643849     0.11924419     0              0.95349438     2.788468     
    134700   0.55429134     0.11131262     0              0.94234366     2.5951277    
    134800   0.52084202     0.12188691     0              0.90276847     2.7223903    
    134900   0.53696182     0.10925786     0              0.9143073      2.5486927    
    135000   0.5428701      0.11532004     0              0.92922758     2.6594295    
    135100   0.54040068     0.11877179     0              0.92897701     2.6902661    
    135200   0.51780891     0.11223849     0              0.8885726      2.5928861    
    135300   0.52508366     0.10110344     0              0.88834434     2.4443596    
    135400   0.52647782     0.11187579     0              0.90120691     2.6008998    
    135500   0.52603906     0.11673896     0              0.90541227     2.6646044    
    135600   0.51128836     0.11329953     0              0.87985759     2.6178258    
    135700   0.49718652     0.11153094     0              0.85694658     2.5933251    
    135800   0.51016767     0.11010508     0              0.87498293     2.5992144    
    135900   0.51565353     0.10949752     0              0.88260014     2.528551     
    136000   0.51209805     0.10793654     0              0.87570855     2.5469442    
    136100   0.49499234     0.11057554     0              0.85270151     2.5559875    
    136200   0.47445092     0.10998867     0              0.82131754     2.5806752    
    136300   0.49546625     0.097853357    0              0.84068984     2.400978     
    136400   0.50257396     0.099631182    0              0.85312402     2.4570638    
    136500   0.49469862     0.10828815     0              0.84997375     2.5128887    
    136600   0.47865397     0.10779597     0              0.82542634     2.4869757    
    136700   0.47093648     0.10766681     0              0.81372661     2.5106069    
    136800   0.49072395     0.10215237     0              0.83787888     2.4893743    
    136900   0.50254199     0.110099       0              0.86354391     2.5651942    
    137000   0.4891957      0.10788235     0              0.8413176      2.5258708    
    137100   0.47647489     0.1006355      0              0.81499884     2.4438879    
    137200   0.46500286     0.097932299    0              0.79509601     2.3008413    
    137300   0.46096231     0.097313535    0              0.78841938     2.403086     
    137400   0.4685784      0.098314015    0              0.80083841     2.3759116    
    137500   0.48004424     0.095625596    0              0.81534036     2.3395186    
    137600   0.46270266     0.094127356    0              0.78784245     2.3146896    
    137700   0.45672455     0.085993763    0              0.77074607     2.2074011    
    137800   0.45463441     0.08751367     0              0.76913229     2.2048299    
    137900   0.45551808     0.0853181      0              0.76826159     2.1907354    
    138000   0.45257291     0.090866952    0              0.76939485     2.2762045    
    138100   0.44712984     0.091394113    0              0.76176139     2.2645073    
    138200   0.43866667     0.087652794    0              0.7453315      2.2320023    
    138300   0.43408213     0.08792784     0              0.7387331      2.1634346    
    138400   0.43643824     0.088057398    0              0.74239511     2.2363158    
    138500   0.44637895     0.093169423    0              0.76241091     2.2607448    
    138600   0.43861439     0.092289481    0              0.74988981     2.2768328    
    138700   0.42071136     0.095736251    0              0.72649515     2.2739858    
    138800   0.42245288     0.090683873    0              0.72405378     2.2582273    
    138900   0.42604226     0.08350767     0              0.72225901     2.1530811    
    139000   0.41221847     0.089125081    0              0.70715087     2.1994898    
    139100   0.40974972     0.075031684    0              0.68935615     1.9672574    
    139200   0.41286364     0.079669401    0              0.69866248     2.0584275    
    139300   0.42747405     0.083198356    0              0.72409634     2.1425417    
    139400   0.41261272     0.092020673    0              0.71063754     2.2380139    
    139500   0.41226739     0.077926113    0              0.69602524     2.0427219    
    139600   0.39687875     0.086892139    0              0.68191958     2.1836046    
    139700   0.39882497     0.076473242    0              0.67441859     2.0001058    
    139800   0.39247651     0.078534184    0              0.6669615      2.0618538    
    139900   0.38428885     0.079097142    0              0.65524896     2.0345017    
    140000   0.38859544     0.072539078    0              0.65514762     1.9173726    
    140100   0.39765188     0.074119731    0              0.6703063      1.9271927    
    140200   0.39474442     0.078861369    0              0.67068888     2.0297962    
    140300   0.38452012     0.065705456    0              0.642204       1.8194914    
    140400   0.3760174      0.070637179    0              0.63438788     1.8850709    
    140500   0.37255538     0.077064352    0              0.63562455     1.9910297    
    140600   0.37681376     0.073279346    0              0.638224       1.9395289    
    140700   0.36600726     0.073352893    0              0.62209571     1.9282009    
    140800   0.35701099     0.070990133    0              0.60624513     1.8610588    
    140900   0.36305586     0.064354566    0              0.60867245     1.8234129    
    141000   0.36932744     0.076042628    0              0.62976329     1.9871199    
    141100   0.36460476     0.080840431    0              0.62748053     2.0538128    
    141200   0.35537928     0.068154374    0              0.60096301     1.8276475    
    141300   0.35535654     0.061030689    0              0.59380522     1.7564986    
    141400   0.34686278     0.068266441    0              0.58830656     1.8252473    
    141500   0.34512873     0.065252236    0              0.58269255     1.8094761    
    141600   0.3435983      0.064819843    0              0.57996563     1.7829689    
    141700   0.34292002     0.061080907    0              0.57520978     1.674906     
    141800   0.33902229     0.056136609    0              0.56442173     1.6342402    
    141900   0.32854873     0.06512421     0              0.55770667     1.7820604    
    142000   0.33966505     0.059241235    0              0.56849004     1.6671541    
    142100   0.33834118     0.066870717    0              0.57413467     1.8049741    
    142200   0.3250392      0.061206252    0              0.54852699     1.7094149    
    142300   0.32484034     0.055105953    0              0.54212855     1.600262     
    142400   0.32334257     0.056687006    0              0.54146404     1.6323198    
    142500   0.31861528     0.060032539    0              0.5377221      1.6917608    
    142600   0.30999903     0.056090369    0              0.52086187     1.6381301    
    142700   0.3043139      0.056684868    0              0.51293283     1.6070651    
    142800   0.31305173     0.054302073    0              0.52365038     1.5617963    
    142900   0.31424166     0.059772259    0              0.53090459     1.6483083    
    143000   0.30182477     0.054664232    0              0.50718033     1.5970265    
    143100   0.29822671     0.050038324    0              0.49715996     1.4854851    
    143200   0.2998913      0.050772744    0              0.50039004     1.5245383    
    143300   0.29977633     0.052668571    0              0.50211351     1.5128425    
    143400   0.28753876     0.05354379     0              0.48464133     1.536726     
    143500   0.28665769     0.048956314    0              0.47873289     1.4729712    
    143600   0.28637534     0.052374409    0              0.48172766     1.5522961    
    143700   0.28650814     0.048187832    0              0.4777402      1.4659071    
    143800   0.27073317     0.049360106    0              0.45526157     1.4237785    
    143900   0.2719933      0.050695327    0              0.45848606     1.4948196    
    144000   0.27912684     0.05047634     0              0.46896215     1.5056299    
    144100   0.27735904     0.049351589    0              0.465187       1.467596     
    144200   0.26646139     0.046098104    0              0.44559503     1.4231449    
    144300   0.26380852     0.046987586    0              0.44250715     1.4012613    
    144400   0.26408203     0.044827448    0              0.44075707     1.3757948    
    144500   0.25934547     0.043987455    0              0.43281571     1.3379335    
    144600   0.2501826      0.044820152    0              0.41991081     1.3660117    
    144700   0.25316008     0.043683885    0              0.42323859     1.361308     
    144800   0.26093737     0.042766151    0              0.4339811      1.3424599    
    144900   0.26412123     0.043425118    0              0.43941352     1.3473216    
    145000   0.24988397     0.042034766    0              0.4166777      1.3225908    
    145100   0.24433181     0.037859829    0              0.40417859     1.2705853    
    145200   0.23753242     0.039673706    0              0.39579836     1.2334007    
    145300   0.23594282     0.03580306     0              0.38954448     1.1995381    
    145400   0.23315304     0.036622468    0              0.38618127     1.1936108    
    145500   0.22958333     0.03963885     0              0.38384569     1.254776     
    145600   0.22547277     0.041882598    0              0.37992661     1.2882458    
    145700   0.22190609     0.04055309     0              0.37324969     1.2170405    
    145800   0.21871547     0.037628682    0              0.36554169     1.2049334    
    145900   0.21968506     0.033092963    0              0.36245965     1.1277895    
    146000   0.21545631     0.032566949    0              0.35559361     1.1054794    
    146100   0.20855337     0.035090326    0              0.34776763     1.1593017    
    146200   0.20824559     0.035811362    0              0.34802722     1.1538027    
    146300   0.21382702     0.034644995    0              0.35522891     1.1938256    
    146400   0.21272086     0.032068425    0              0.35099392     1.0753764    
    146500   0.20117829     0.034504775    0              0.33612486     1.1236833    
    146600   0.19813879     0.032618695    0              0.32968176     1.1244013    
    146700   0.19540286     0.031907601    0              0.32486878     1.0992375    
    146800   0.19114106     0.032122113    0              0.3186937      1.0978944    
    146900   0.18796074     0.027146855    0              0.3089503      0.98772114   
    147000   0.18519899     0.02952746     0              0.30719031     1.0313132    
    147100   0.18929688     0.029694549    0              0.31350122     1.0398871    
    147200   0.18792837     0.032205916    0              0.31396082     1.086036     
    147300   0.18171156     0.026519432    0              0.29895369     0.98670586   
    147400   0.17606781     0.026298662    0              0.29027142     0.95815128   
    147500   0.17236294     0.025383693    0              0.28380186     0.93426338   
    147600   0.16935865     0.024913202    0              0.27882713     0.8879563    
    147700   0.1673054      0.022336839    0              0.27317239     0.86799139   
    147800   0.1605549      0.023749872    0              0.26446463     0.86092772   
    147900   0.15675436     0.023450263    0              0.25846699     0.87693371   
    148000   0.15865181     0.024874726    0              0.26273625     0.90512066   
    148100   0.16313339     0.025197632    0              0.26977824     0.93276983   
    148200   0.15393405     0.026138013    0              0.25692635     0.95935177   
    148300   0.15102738     0.021501842    0              0.24793229     0.82710233   
    148400   0.14766605     0.019252598    0              0.24064351     0.76981594   
    148500   0.14375578     0.018518512    0              0.23404689     0.7542792    
    148600   0.13954164     0.019895844    0              0.2291061      0.78307627   
    148700   0.13573017     0.021454603    0              0.22495044     0.81404445   
    148800   0.13428979     0.017825961    0              0.21916229     0.70553609   
    148900   0.12910304     0.016402119    0              0.20996212     0.69441049   
    149000   0.12962396     0.016164558    0              0.21050557     0.69233169   
    149100   0.12800128     0.017697446    0              0.20960562     0.72311356   
    149200   0.12496845     0.015764972    0              0.20312611     0.67833002   
    149300   0.1223921      0.015179722    0              0.19867822     0.65431161   
    149400   0.11963214     0.01566266     0              0.19502325     0.6695999    
    149500   0.11637686     0.014344943    0              0.18882499     0.63070917   
    149600   0.11333        0.013790397    0              0.18370239     0.61983487   
    149700   0.11032525     0.013826279    0              0.17923336     0.61711092   
    149800   0.10750359     0.0132695      0              0.17444615     0.60196155   
    149900   0.10433053     0.013091663    0              0.16951104     0.58114118   
    150000   0.10293282     0.011127484    0              0.16545132     0.52538027   
Loop time of 15.3983 on 1 procs for 100000 steps with 2048 atoms

Performance: 1122202.133 tau/day, 6494.225 timesteps/s, 13.300 Matom-step/s
99.4% CPU use with 1 MPI tasks x 1 OpenMP threads

MPI task timing breakdown:
Section |  min time  |  avg time  |  max time  |%varavg| %total
---------------------------------------------------------------
Pair    | 5.9765     | 5.9765     | 5.9765     |   0.0 | 38.81
Neigh   | 5.3926     | 5.3926     | 5.3926     |   0.0 | 35.02
Comm    | 0.81595    | 0.81595    | 0.81595    |   0.0 |  5.30
Output  | 0.075153   | 0.075153   | 0.075153   |   0.0 |  0.49
Modify  | 2.5399     | 2.5399     | 2.5399     |   0.0 | 16.49
Other   |            | 0.5982     |            |       |  3.88

Nlocal:           2048 ave        2048 max        2048 min
Histogram: 1 0 0 0 0 0 0 0 0 0
Nghost:           1405 ave        1405 max        1405 min
Histogram: 1 0 0 0 0 0 0 0 0 0
Neighs:           7909 ave        7909 max        7909 min
Histogram: 1 0 0 0 0 0 0 0 0 0

Total # of neighbors = 7909
Ave neighs/atom = 3.8618164
Neighbor list builds = 6527
Dangerous builds = 0
Total wall time: 0:00:24
