LAMMPS (15 Sep 2022)
OMP_NUM_THREADS environment is not set. Defaulting to 1 thread. (src/comm.cpp:98)
  using 1 OpenMP thread(s) per MPI task
# 3d WCA system, random initial configuration

#variable density equal 0.5
variable initial_temperature equal 3.0
variable final_temperature equal 0.1
variable dt equal 0.002
variable tau equal 100*${dt}
variable tau equal 100*0.002
variable thermo_time equal 50000*${dt}
variable thermo_time equal 50000*0.002
variable equil_steps equal 50000
variable run_steps equal 100000

units           lj
atom_style      atomic
dimension       3

lattice         fcc ${density}
lattice         fcc 1.5
Lattice spacing in x,y,z = 1.3867225 1.3867225 1.3867225
region          box block 0 8 0 8 0 8
# number of atom types
create_box      1 box
Created orthogonal box = (0 0 0) to (11.09378 11.09378 11.09378)
  1 by 1 by 1 MPI processor grid
create_atoms    1 box
Created 2048 atoms
  using lattice units in orthogonal box = (0 0 0) to (11.09378 11.09378 11.09378)
  create_atoms CPU = 0.000 seconds
mass 1 1.0

velocity all create ${initial_temperature} 12345
velocity all create 3 12345

pair_style      lj/cut 1.0
#type_1 type_2 epsilon sigma cutoff
pair_coeff      1 1 10.0 0.89089871814 1.0
pair_modify shift yes

timestep ${dt}
timestep 0.002
thermo ${thermo_time}
thermo 100

fix 1 all nvt temp ${initial_temperature} ${initial_temperature} ${tau}
fix 1 all nvt temp 3 ${initial_temperature} ${tau}
fix 1 all nvt temp 3 3 ${tau}
fix 1 all nvt temp 3 3 0.2
run ${equil_steps}
run 50000
Generated 0 of 0 mixed pair_coeff terms from geometric mixing rule
Neighbor list info ...
  update: every = 1 steps, delay = 0 steps, check = yes
  max neighbors/atom: 2000, page size: 100000
  master list distance cutoff = 1.3
  ghost atom cutoff = 1.3
  binsize = 0.65, bins = 18 18 18
  1 neighbor lists, perpetual/occasional/extra = 1 0 0
  (1) pair lj/cut, perpetual
      attributes: half, newton on
      pair build: half/bin/atomonly/newton
      stencil: half/bin/3d
      bin: standard
Per MPI rank memory allocation (min/avg/max) = 3.156 | 3.156 | 3.156 Mbytes
   Step          Temp          E_pair         E_mol          TotEng         Press     
         0   3              0.9375         0              5.4353027      55.122803    
       100   1.5842404      3.4510974      0              5.8262976      83.748497    
       200   1.8057695      3.7383164      0              6.445648       87.62746     
       300   2.0078006      4.1699824      0              7.1802128      93.247002    
       400   2.3175428      4.5118076      0              7.9864243      97.698973    
       500   2.5383322      5.0007043      0              8.8063435      103.73255    
       600   2.839386       5.306115       0              9.5631144      107.92304    
       700   3.0846968      5.5116936      0              10.13648       110.6072     
       800   3.192032       5.5927236      0              10.378434      111.32472    
       900   3.0321021      5.6221907      0              10.168123      111.6573     
      1000   2.957033       5.3556785      0              9.7890622      108.59217    
      1100   2.897945       5.2601177      0              9.6049127      107.62394    
      1200   2.8523238      5.4444731      0              9.7208696      109.54401    
      1300   3.0230342      5.4806778      0              10.013015      110.37406    
      1400   3.0324258      5.6605685      0              10.206986      111.9753     
      1500   3.0400302      5.5663282      0              10.124147      110.91263    
      1600   3.008036       5.3507526      0              9.8606035      108.34241    
      1700   2.8686936      5.3856088      0              9.6865481      108.67407    
      1800   3.0032208      5.2391399      0              9.7417715      107.3151     
      1900   2.9815993      5.4920248      0              9.9622399      110.15618    
      2000   3.0850854      5.5142774      0              10.139646      110.47193    
      2100   3.0572887      5.5201179      0              10.103812      110.1447     
      2200   2.9691778      5.4452965      0              9.8968886      109.57202    
      2300   2.8747572      5.4227474      0              9.7327776      109.1342     
      2400   3.0382752      5.1952453      0              9.7504328      106.78608    
      2500   3.0591152      5.3450958      0              9.931528       108.4491     
      2600   3.062866       5.5061634      0              10.098219      110.32925    
      2700   3.074131       5.4849313      0              10.093876      109.97912    
      2800   2.9296471      5.5368526      0              9.9291776      110.17048    
      2900   3.0017338      5.2754683      0              9.7758705      107.77087    
      3000   2.9258376      5.3835764      0              9.7701899      108.85728    
      3100   2.9912395      5.430557       0              9.9152255      109.57034    
      3200   3.0230359      5.5346073      0              10.066947      110.48054    
      3300   3.0947441      5.4500073      0              10.089857      109.80004    
      3400   2.9836997      5.4913982      0              9.9647625      110.0308     
      3500   3.0330972      5.2692412      0              9.8166656      107.4335     
      3600   2.9831119      5.3044944      0              9.7769774      107.90911    
      3700   2.9451706      5.4633073      0              9.8789061      109.81519    
      3800   3.0635712      5.427618       0              10.020731      109.59707    
      3900   3.080117       5.4600329      0              10.077952      109.70737    
      4000   3.0330425      5.4395748      0              9.9869171      109.60662    
      4100   2.9537821      5.4143776      0              9.8428873      109.08605    
      4200   3.0373715      5.2265391      0              9.7803717      107.19514    
      4300   2.9662832      5.4087102      0              9.8559624      109.27089    
      4400   3.0609327      5.4079208      0              9.9970779      109.21251    
      4500   3.0464054      5.4962592      0              10.063636      110.21584    
      4600   3.0588498      5.4089052      0              9.9949395      109.41188    
      4700   2.9525229      5.4358949      0              9.8625168      109.27663    
      4800   2.9007326      5.4431906      0              9.7921649      109.31679    
      4900   2.9959447      5.3600118      0              9.8517346      108.40457    
      5000   2.9869572      5.5126716      0              9.9909196      110.5918     
      5100   3.0275308      5.523367       0              10.062446      110.47447    
      5200   3.0539559      5.4079928      0              9.9866898      109.35068    
      5300   2.9127507      5.4418443      0              9.808837       109.35687    
      5400   2.9258633      5.4124238      0              9.7990759      109.37146    
      5500   3.0604649      5.2876779      0              9.8761337      108.18587    
      5600   3.0008523      5.4334151      0              9.9324957      109.33945    
      5700   2.9711143      5.4962803      0              9.9507756      110.30628    
      5800   2.9137945      5.5739109      0              9.9424685      111.15518    
      5900   2.99581        5.4142787      0              9.9057994      109.18       
      6000   2.9668405      5.2651985      0              9.7132863      107.61763    
      6100   2.9572222      5.255172       0              9.6888394      107.38007    
      6200   2.9323713      5.4761853      0              9.8725946      109.56767    
      6300   2.9838965      5.4925345      0              9.9661937      110.11849    
      6400   3.0356653      5.4322273      0              9.9835018      109.53911    
      6500   3.0462246      5.3504919      0              9.9175976      108.56436    
      6600   2.92023        5.3531468      0              9.731353       108.33092    
      6700   2.8492148      5.4351606      0              9.7068959      109.20647    
      6800   3.0345427      5.330902       0              9.8804934      108.21995    
      6900   2.9951532      5.4454881      0              9.9360242      109.75129    
      7000   2.9929738      5.4571691      0              9.9444376      109.74684    
      7100   3.0280819      5.3959812      0              9.9358862      109.15981    
      7200   2.9705753      5.439202       0              9.8928892      109.69378    
      7300   2.9498121      5.3936979      0              9.8162556      109.0083     
      7400   2.9484368      5.3758871      0              9.7963828      108.86321    
      7500   3.0192071      5.4112237      0              9.9378231      109.12436    
      7600   3.0732899      5.4564575      0              10.064141      109.74414    
      7700   3.061692       5.4330573      0              10.023353      109.64147    
      7800   2.9740294      5.4356702      0              9.8945361      109.63478    
      7900   2.994567       5.3338938      0              9.8235511      108.09144    
      8000   2.9838719      5.3742395      0              9.8478619      108.88566    
      8100   2.981682       5.444809       0              9.9151482      109.68428    
      8200   3.0290139      5.4574541      0              9.9987564      109.62695    
      8300   3.0209055      5.5230431      0              10.052189      110.44803    
      8400   2.9923951      5.495561       0              9.9819619      110.29722    
      8500   2.9502583      5.3777854      0              9.801012       108.92275    
      8600   2.9648522      5.3398037      0              9.7849106      108.02299    
      8700   2.9954141      5.4320338      0              9.922961       109.62423    
      8800   3.0532816      5.4526528      0              10.030339      109.72969    
      8900   2.984597       5.5312729      0              10.005982      110.47212    
      9000   3.0332307      5.3956931      0              9.9433175      108.98153    
      9100   3.0021697      5.3690068      0              9.8700625      109.00262    
      9200   2.9857803      5.3270232      0              9.8035068      108.10326    
      9300   2.9516447      5.3058973      0              9.7312025      108.02895    
      9400   2.9533172      5.4039672      0              9.8317799      108.98117    
      9500   2.9727683      5.5358761      0              9.9928513      110.93237    
      9600   3.0319603      5.4833465      0              10.029066      110.03982    
      9700   3.0149877      5.4248384      0              9.9451117      109.38747    
      9800   2.961638       5.3160432      0              9.756331       108.24138    
      9900   2.974901       5.2690253      0              9.7291979      107.65478    
     10000   2.9349449      5.4082206      0              9.8084884      109.40175    
     10100   3.0006755      5.39862        0              9.8974355      109.23282    
     10200   3.0134649      5.4703399      0              9.98833        109.70461    
     10300   3.0569141      5.4406493      0              10.023781      109.50621    
     10400   2.9546107      5.4900215      0              9.9197735      109.8075     
     10500   2.9090496      5.3873593      0              9.7488031      108.65479    
     10600   2.8921754      5.4502022      0              9.7863469      109.70365    
     10700   3.0118458      5.4294199      0              9.9449826      109.43364    
     10800   3.0548742      5.410033       0              9.9901069      109.34939    
     10900   3.058701       5.3806752      0              9.9664864      108.87917    
     11000   2.9893905      5.4210042      0              9.9029005      109.20477    
     11100   2.8944825      5.4131539      0              9.7527576      109.19208    
     11200   2.9047068      5.2692627      0              9.6241955      107.55781    
     11300   2.8914091      5.4503887      0              9.7853846      109.59761    
     11400   2.9629935      5.4597104      0              9.9020306      109.68673    
     11500   2.9865064      5.468823       0              9.9463953      109.85139    
     11600   2.9668838      5.5272556      0              9.9754083      110.38822    
     11700   3.0088175      5.4490576      0              9.9600801      109.33595    
     11800   2.9213001      5.4686909      0              9.8485014      109.49016    
     11900   2.9321598      5.3528986      0              9.7489907      108.53601    
     12000   2.9960133      5.3286241      0              9.8204497      108.07163    
     12100   2.9804799      5.5595862      0              10.028123      111.06557    
     12200   3.0077535      5.5247087      0              10.034136      110.20381    
     12300   2.9814763      5.4642107      0              9.9342414      109.46818    
     12400   2.9537438      5.3938402      0              9.8222924      108.75849    
     12500   2.9551234      5.3835025      0              9.8140231      108.82968    
     12600   3.0439406      5.5128582      0              10.07654       110.40485    
     12700   3.0215118      5.5927714      0              10.122826      111.33522    
     12800   2.9997029      5.4725002      0              9.9698575      109.97408    
     12900   2.9053978      5.4978539      0              9.8538227      110.05173    
     13000   3.0107963      5.3334081      0              9.8473974      108.21513    
     13100   2.9741229      5.5083212      0              9.9673273      110.34282    
     13200   3.0633804      5.5597547      0              10.152582      110.80298    
     13300   3.1177866      5.4301214      0              10.104518      109.76666    
     13400   3.0669809      5.4059365      0              10.004162      108.92305    
     13500   3.007261       5.4121263      0              9.9208153      109.48299    
     13600   2.9533647      5.4425078      0              9.8703917      109.48109    
     13700   2.8951497      5.528161       0              9.8687651      110.17984    
     13800   3.0311445      5.4597031      0              10.0042        109.66277    
     13900   3.0139608      5.5920327      0              10.110766      111.27676    
     14000   3.0517277      5.4482085      0              10.023565      109.93699    
     14100   2.9490716      5.4368651      0              9.8583126      109.62249    
     14200   2.9104672      5.4829353      0              9.8465044      109.5749     
     14300   2.9744944      5.4354149      0              9.8949779      109.68704    
     14400   3.0256485      5.4434247      0              9.9796815      109.53626    
     14500   2.931372       5.6858389      0              10.08075       112.40782    
     14600   3.1878796      5.4724902      0              10.251975      109.871      
     14700   3.0593465      5.5411331      0              10.127912      110.44357    
     14800   3.0627549      5.3624446      0              9.9543337      108.7784     
     14900   2.8980977      5.5342671      0              9.8792911      110.62438    
     15000   3.0370607      5.3049341      0              9.8583008      108.09159    
     15100   2.9376733      5.5305821      0              9.9349404      110.17344    
     15200   3.0265603      5.5682654      0              10.105889      111.20663    
     15300   3.0044457      5.6113034      0              10.115771      111.41441    
     15400   2.9345391      5.5157509      0              9.9154102      110.19635    
     15500   3.0254301      5.3197268      0              9.8556561      108.33707    
     15600   2.9172827      5.5178785      0              9.8916659      110.44846    
     15700   2.9891592      5.4985973      0              9.9801467      110.07535    
     15800   3.0697678      5.4681769      0              10.07058       110.0356     
     15900   3.1158257      5.4113987      0              10.082855      109.43173    
     16000   2.9881277      5.4138907      0              9.8938937      109.19944    
     16100   2.9725673      5.3415172      0              9.7981909      108.12244    
     16200   2.9663206      5.4054224      0              9.8527307      108.98907    
     16300   3.0370811      5.4626305      0              10.016028      109.78506    
     16400   2.9642885      5.6115312      0              10.055793      111.35993    
     16500   3.005065       5.4936927      0              9.9990892      110.20814    
     16600   2.9638496      5.4922461      0              9.9358498      110.49222    
     16700   2.9125371      5.5145756      0              9.8812481      110.31473    
     16800   2.9036226      5.4899323      0              9.8432395      109.97391    
     16900   2.9194168      5.44698        0              9.8239669      109.48754    
     17000   2.9670847      5.4555064      0              9.9039603      109.6297     
     17100   3.03013        5.4943928      0              10.037368      110.44546    
     17200   3.0716809      5.4647666      0              10.070038      109.81104    
     17300   3.0067035      5.4003087      0              9.9081618      109.46878    
     17400   2.8680852      5.4762326      0              9.7762597      109.86255    
     17500   2.9397755      5.4206913      0              9.8282014      109.31163    
     17600   3.0298055      5.3874277      0              9.9299169      108.9702     
     17700   3.0362144      5.4352681      0              9.9873659      109.66601    
     17800   3.052535       5.4035236      0              9.9800904      109.66444    
     17900   2.9945589      5.3564739      0              9.846119       108.63582    
     18000   2.897023       5.3017726      0              9.6451852      107.88717    
     18100   2.9877604      5.2881229      0              9.7675752      107.8246     
     18200   3.0385165      5.372464       0              9.9280133      109.00234    
     18300   3.0162925      5.4745936      0              9.9968232      109.91449    
     18400   3.0056226      5.4798589      0              9.9860914      110.06604    
     18500   3.0240044      5.3138437      0              9.8476354      108.26104    
     18600   2.8874883      5.3840832      0              9.7132009      108.56784    
     18700   2.912991       5.4215751      0              9.788928       109.3842     
     18800   3.0529867      5.3473276      0              9.9245716      108.63785    
     18900   2.9648198      5.5061718      0              9.95123        110.0834     
     19000   2.9548294      5.5189717      0              9.9490516      110.54213    
     19100   3.0230376      5.3753136      0              9.9076558      109.05093    
     19200   2.9719329      5.3461798      0              9.8019024      108.29929    
     19300   2.9394572      5.3214327      0              9.7284656      108.27069    
     19400   2.9361226      5.4671437      0              9.8691771      109.84137    
     19500   3.0780387      5.4073824      0              10.022186      109.54461    
     19600   2.987119       5.524078       0              10.002569      110.55812    
     19700   2.9357018      5.4944139      0              9.8958165      109.92253    
     19800   2.8764678      5.4711126      0              9.7837075      109.63526    
     19900   3.0707503      5.129179       0              9.7330553      106.16955    
     20000   2.9633164      5.4080268      0              9.8508311      108.62476    
     20100   2.9710589      5.5608451      0              10.015257      110.95886    
     20200   3.0786419      5.433782       0              10.04949       109.80599    
     20300   2.9639902      5.4970141      0              9.9408285      110.06682    
     20400   2.9415548      5.3836699      0              9.7938477      108.71834    
     20500   2.9605751      5.3594986      0              9.7981928      108.61058    
     20600   2.9473467      5.4549028      0              9.8737641      109.45255    
     20700   2.9878095      5.4330228      0              9.9125488      109.22566    
     20800   2.9598029      5.5053693      0              9.9429058      110.2497     
     20900   2.9891877      5.4944543      0              9.9760465      110.35601    
     21000   3.0595028      5.4223607      0              10.009374      109.7947     
     21100   2.9935782      5.4980705      0              9.9862453      110.36152    
     21200   2.9541916      5.4332887      0              9.8624124      109.20781    
     21300   3.037844       5.2237181      0              9.7782591      107.24695    
     21400   2.9401466      5.4468294      0              9.8548959      109.42517    
     21500   3.1107719      5.4038555      0              10.067735      108.89689    
     21600   3.0441477      5.4936543      0              10.057646      110.28821    
     21700   2.9180654      5.5741675      0              9.9491284      110.81395    
     21800   2.97913        5.4048212      0              9.8713342      109.32558    
     21900   3.041514       5.299435       0              9.8594783      108.00347    
     22000   3.0296836      5.4031102      0              9.9454166      109.25382    
     22100   3.119351       5.5318298      0              10.208572      110.69227    
     22200   3.0515521      5.545254       0              10.120347      110.87767    
     22300   2.9756237      5.4789351      0              9.9401912      110.06454    
     22400   3.021622       5.3378727      0              9.8680926      108.42152    
     22500   3.0062504      5.3585867      0              9.8657605      108.57056    
     22600   2.9870315      5.5011699      0              9.9795295      110.32368    
     22700   3.1359946      5.4422776      0              10.143973      109.65857    
     22800   2.9989367      5.5894664      0              10.085675      111.20125    
     22900   2.9644293      5.47274        0              9.9172126      109.46882    
     23000   2.9597196      5.4557269      0              9.8931385      109.68083    
     23100   2.9943553      5.4215597      0              9.9108995      109.38194    
     23200   3.0727799      5.3575372      0              9.9644565      109.03615    
     23300   3.0478812      5.4886819      0              10.058271      110.44196    
     23400   3.0654284      5.5238327      0              10.11973       110.69031    
     23500   3.0921953      5.3388127      0              9.9748409      108.46331    
     23600   2.9548814      5.3956497      0              9.8258075      109.09123    
     23700   2.9547091      5.4119308      0              9.8418304      109.36224    
     23800   2.9690283      5.5096408      0              9.9610087      110.20773    
     23900   3.001376       5.5859748      0              10.085841      111.51577    
     24000   3.0127098      5.5291531      0              10.046011      110.57697    
     24100   2.9541549      5.3501867      0              9.7792553      108.40537    
     24200   2.8764107      5.4693938      0              9.7819031      109.43009    
     24300   3.0052585      5.4174424      0              9.923129       109.40335    
     24400   3.0900005      5.3959347      0              10.028672      109.06125    
     24500   3.0082883      5.500692       0              10.010921      110.31683    
     24600   2.9778966      5.3553372      0              9.820001       108.6388     
     24700   2.9524699      5.2926531      0              9.7191955      107.59362    
     24800   2.9753642      5.3458545      0              9.8067215      108.32008    
     24900   3.0319677      5.3708166      0              9.9165475      108.885      
     25000   2.9568895      5.5453118      0              9.9784803      110.89662    
     25100   3.0024581      5.4706985      0              9.9721866      109.83552    
     25200   2.9232463      5.4251826      0              9.807911       109.30454    
     25300   2.8793536      5.3624794      0              9.6794008      108.85056    
     25400   2.9484636      5.3839436      0              9.8044794      108.85856    
     25500   3.0076127      5.4234459      0              9.9326621      109.37715    
     25600   2.9586728      5.5345911      0              9.9704333      110.71045    
     25700   3.0231363      5.4332515      0              9.9657417      109.30891    
     25800   2.9821852      5.393411       0              9.8645045      109.29711    
     25900   2.9309945      5.310594       0              9.704939       107.92757    
     26000   2.9462198      5.3457068      0              9.7628786      108.51998    
     26100   2.9947148      5.4498498      0              9.9397287      109.46936    
     26200   3.043603       5.4106488      0              9.9738241      109.20122    
     26300   2.9309166      5.5572798      0              9.9515081      110.68166    
     26400   2.9909044      5.3874151      0              9.8715812      108.89258    
     26500   2.8937823      5.395342       0              9.7338959      108.82348    
     26600   2.9321427      5.3086778      0              9.7047443      107.98958    
     26700   3.0549153      5.358253       0              9.9383884      108.9753     
     26800   2.998635       5.5176534      0              10.01341       110.43668    
     26900   2.9507781      5.5509379      0              9.9749438      110.38418    
     27000   2.9845202      5.3758429      0              9.8504373      108.68288    
     27100   2.9258558      5.3660065      0              9.7526472      108.71564    
     27200   2.9311655      5.4424753      0              9.8370768      109.28962    
     27300   3.0311468      5.513705       0              10.058205      110.41719    
     27400   3.0456935      5.4847997      0              10.051109      109.96936    
     27500   2.9935255      5.4232261      0              9.9113219      109.34961    
     27600   2.9450148      5.4021153      0              9.8174805      108.92401    
     27700   2.9416926      5.4331165      0              9.8435009      109.57914    
     27800   3.0530831      5.4553066      0              10.032695      109.48648    
     27900   3.102137       5.516721       0              10.167654      110.40236    
     28000   3.0026741      5.5669274      0              10.068739      111.28649    
     28100   3.0071134      5.4127834      0              9.9212509      109.32064    
     28200   2.9874545      5.366449       0              9.8454428      108.54012    
     28300   2.9233873      5.4682979      0              9.8512377      109.90627    
     28400   3.0781796      5.4155099      0              10.030525      109.41136    
     28500   3.0929947      5.5000932      0              10.13732       110.6832     
     28600   2.9988199      5.5472798      0              10.043313      110.61451    
     28700   3.0720129      5.3274538      0              9.9332231      108.60149    
     28800   3.0016604      5.4036016      0              9.9038937      109.32822    
     28900   3.0067785      5.4051784      0              9.913144       109.14396    
     29000   3.0290768      5.4138594      0              9.9552561      109.58878    
     29100   3.0592087      5.5204065      0              10.106979      110.52834    
     29200   3.0927147      5.5010814      0              10.137888      110.15913    
     29300   3.0180282      5.4247238      0              9.9495556      109.14232    
     29400   3.012192       5.343898       0              9.8599798      108.66071    
     29500   2.9746377      5.417648       0              9.8774259      108.98413    
     29600   2.9545205      5.537174       0              9.9667908      110.56393    
     29700   3.0295677      5.590571       0              10.132704      111.27653    
     29800   3.1110891      5.5335187      0              10.197874      110.2813     
     29900   3.0153751      5.4164176      0              9.9372716      109.40388    
     30000   2.9442278      5.4293046      0              9.8434899      109.14042    
     30100   2.9452007      5.4400783      0              9.8557222      109.13236    
     30200   2.9819248      5.4954999      0              9.9662031      110.30853    
     30300   3.0291385      5.5345504      0              10.07604       110.57451    
     30400   3.0712135      5.430693       0              10.035264      109.67877    
     30500   3.0143315      5.2741938      0              9.7934833      108.02523    
     30600   2.9592446      5.3533464      0              9.7900458      108.62104    
     30700   3.0196216      5.3875641      0              9.9147848      109.03071    
     30800   2.9709822      5.5628677      0              10.017165      110.54979    
     30900   3.0557744      5.4239855      0              10.005409      109.64792    
     31000   3.0423016      5.3863731      0              9.9475973      108.59149    
     31100   3.0190682      5.3956556      0              9.9220467      109.04831    
     31200   2.9364502      5.517298       0              9.9198226      110.20355    
     31300   3.0121584      5.4129372      0              9.9289687      109.3796     
     31400   2.9890582      5.4758091      0              9.9572072      110.06665    
     31500   3.0587327      5.4294654      0              10.015324      109.38317    
     31600   3.0187582      5.4933251      0              10.019251      110.35199    
     31700   3.014771       5.3919629      0              9.9119113      108.989      
     31800   2.9478885      5.3666587      0              9.7863323      108.64176    
     31900   3.0255022      5.2686711      0              9.8047084      107.55126    
     32000   3.0469579      5.4723324      0              10.040538      109.90113    
     32100   3.0637028      5.4825087      0              10.075819      109.67079    
     32200   3.0261303      5.4355388      0              9.9725178      109.44804    
     32300   2.9668883      5.4109235      0              9.8590829      109.0912     
     32400   2.98134        5.3707359      0              9.8405624      108.97437    
     32500   2.9861878      5.4521573      0              9.9292519      109.62527    
     32600   3.1107605      5.5227653      0              10.186628      110.50458    
     32700   3.0354441      5.5795476      0              10.130491      111.39913    
     32800   3.0303647      5.4293152      0              9.9726427      109.6739     
     32900   3.0624662      5.2924871      0              9.8839435      108.02467    
     33000   3.0428677      5.3038993      0              9.8659722      108.26314    
     33100   3.0000494      5.4351338      0              9.9330105      109.35051    
     33200   2.9866816      5.6529658      0              10.130801      112.0072     
     33300   3.1058043      5.461856       0              10.118288      109.75825    
     33400   2.9908211      5.4678575      0              9.9518985      109.83032    
     33500   2.9370227      5.4942941      0              9.897677       109.96967    
     33600   2.9750493      5.4435695      0              9.9039645      109.31495    
     33700   3.0405571      5.3893799      0              9.9479887      108.92824    
     33800   3.0317281      5.516483       0              10.061855      110.35129    
     33900   3.0617329      5.560187       0              10.150544      110.76801    
     34000   3.0222259      5.4693074      0              10.000433      110.12094    
     34100   2.9483474      5.4311597      0              9.8515214      109.60056    
     34200   2.9789651      5.3876374      0              9.8539032      108.96786    
     34300   2.9947767      5.4568524      0              9.946824       109.69623    
     34400   3.0762524      5.4766772      0              10.088803      109.7991     
     34500   3.0771185      5.532273       0              10.145697      110.76978    
     34600   3.0209735      5.4181665      0              9.9474142      109.20574    
     34700   2.9870542      5.3366032      0              9.8149968      108.3256     
     34800   2.9439269      5.4165006      0              9.8302347      109.43083    
     34900   3.0331058      5.4209518      0              9.968389       109.33154    
     35000   3.0843632      5.4432764      0              10.067562      109.49749    
     35100   2.9948288      5.5190678      0              10.009117      110.36105    
     35200   2.9808389      5.3437105      0              9.8127857      108.20627    
     35300   2.8823422      5.4306362      0              9.7520384      108.78282    
     35400   2.9933979      5.3456452      0              9.8335496      108.50372    
     35500   3.0387289      5.4149889      0              9.9708566      109.32911    
     35600   3.0597463      5.4547747      0              10.042153      109.94319    
     35700   3.0410113      5.4264106      0              9.9857002      109.78926    
     35800   2.8947575      5.4455963      0              9.7856123      109.34323    
     35900   2.9203469      5.3806083      0              9.7589898      108.79754    
     36000   2.968913       5.3983608      0              9.8495558      109.14104    
     36100   2.987729       5.4411472      0              9.9205524      109.85191    
     36200   2.994252       5.4652737      0              9.9544586      110.02586    
     36300   3.0037106      5.4516348      0              9.9550007      109.87407    
     36400   3.0728705      5.2679083      0              9.8749633      107.87077    
     36500   2.9361152      5.3102688      0              9.7122912      108.18038    
     36600   2.9621817      5.3164352      0              9.7575383      108.2057     
     36700   3.0087951      5.4270543      0              9.9380433      109.73924    
     36800   3.0461883      5.4229303      0              9.9899816      109.28258    
     36900   3.0220472      5.4321086      0              9.9629659      109.56716    
     37000   3.0230681      5.3324418      0              9.8648298      108.29392    
     37100   2.8700628      5.3808544      0              9.6838466      108.5125     
     37200   2.9029315      5.3557691      0              9.7080402      108.637      
     37300   2.9613143      5.4948312      0              9.9346337      110.11955    
     37400   3.0529129      5.3940201      0              9.9711534      109.16081    
     37500   3.0637188      5.3594267      0              9.952761       108.85147    
     37600   2.9336957      5.4855197      0              9.8839146      109.9388     
     37700   2.9672389      5.3526632      0              9.8013483      108.19984    
     37800   2.9134189      5.4251478      0              9.7931424      109.27993    
     37900   3.0379453      5.4212205      0              9.9759134      109.34568    
     38000   3.0024202      5.5647834      0              10.066215      110.62267    
     38100   3.0005131      5.4963858      0              9.9949578      110.0896     
     38200   2.9438777      5.4299688      0              9.8436291      109.32356    
     38300   2.9764638      5.3471631      0              9.8096788      108.10662    
     38400   2.9237749      5.469417       0              9.852938       109.89592    
     38500   3.0321274      5.3773213      0              9.9232916      108.36229    
     38600   2.9710856      5.545741       0              10.000193      110.80582    
     38700   2.9592347      5.6359226      0              10.072607      111.69218    
     38800   3.0472997      5.5395257      0              10.108243      110.72806    
     38900   3.0617382      5.3645417      0              9.9549065      108.9985     
     39000   2.9161085      5.4562255      0              9.8282525      109.58204    
     39100   2.8744729      5.5250214      0              9.8346254      110.39667    
     39200   2.960956       5.5386304      0              9.9778958      110.82883    
     39300   3.0414063      5.5593364      0              10.119218      110.73348    
     39400   3.0038535      5.5648335      0              10.068414      110.63074    
     39500   3.0218377      5.462832       0              9.9933752      109.8555     
     39600   2.9990417      5.4119131      0              9.9082791      109.20291    
     39700   2.9650313      5.3988677      0              9.8442429      109.32506    
     39800   2.944602       5.4266061      0              9.8413524      109.58089    
     39900   2.9869353      5.5072274      0              9.9854426      110.48891    
     40000   3.0424981      5.5298832      0              10.091402      110.88442    
     40100   2.9916473      5.5338337      0              10.019113      110.68895    
     40200   2.9149474      5.4730177      0              9.8433037      109.81286    
     40300   2.9786901      5.3601425      0              9.825996       108.5471     
     40400   2.9955769      5.3932389      0              9.8844102      109.46184    
     40500   3.0229069      5.4285461      0              9.9606925      109.06102    
     40600   3.0191638      5.4679242      0              9.9944586      109.76694    
     40700   3.0217028      5.4121795      0              9.9425205      109.19821    
     40800   2.9617754      5.3548827      0              9.7953766      108.43717    
     40900   2.9249705      5.3891711      0              9.7744846      108.91967    
     41000   3.0385187      5.3583611      0              9.9139137      108.68501    
     41100   3.0000682      5.5328153      0              10.03072       110.28536    
     41200   3.0332831      5.4609129      0              10.008616      109.85593    
     41300   2.9882991      5.4110059      0              9.8912658      109.0042     
     41400   2.9311099      5.3084856      0              9.7030035      107.99955    
     41500   2.9524655      5.120907       0              9.5474429      105.82216    
     41600   2.8320348      5.3142393      0              9.5602173      107.898      
     41700   2.9563842      5.3822182      0              9.8146292      108.66624    
     41800   3.0172936      5.4382126      0              9.9619431      109.88396    
     41900   2.9847709      5.5648725      0              10.039843      110.88747    
     42000   2.933595       5.6102719      0              10.008516      111.20456    
     42100   3.0475071      5.2921916      0              9.8612201      107.86498    
     42200   3.0030949      5.2740134      0              9.7764562      108.13834    
     42300   2.9850338      5.3830366      0              9.858401       109.22731    
     42400   3.0687577      5.4984271      0              10.099316      110.20221    
     42500   3.0508892      5.4924551      0              10.066554      110.18715    
     42600   2.9781031      5.4682999      0              9.9332733      110.10561    
     42700   2.9803585      5.3713407      0              9.8396955      109.21161    
     42800   2.9725339      5.3897781      0              9.8464018      108.95155    
     42900   3.0635451      5.4500206      0              10.043094      109.84448    
     43000   3.0825009      5.5317783      0              10.153272      110.51726    
     43100   2.9815665      5.5682836      0              10.03845       110.78851    
     43200   2.9700247      5.4652141      0              9.9180758      109.77347    
     43300   2.9484143      5.4559681      0              9.87643        109.5604     
     43400   3.0278397      5.3560713      0              9.8956132      108.1618     
     43500   3.0465359      5.4612101      0              10.028783      109.87862    
     43600   3.1169738      5.50629        0              10.179468      110.7448     
     43700   3.0751625      5.4548823      0              10.065374      109.87857    
     43800   2.9846506      5.4514283      0              9.9262181      109.7099     
     43900   3.0358721      5.340796       0              9.8923805      108.68481    
     44000   2.9662387      5.4527922      0              9.8999777      109.83908    
     44100   3.0922432      5.3532631      0              9.9893632      108.52239    
     44200   3.0780473      5.5337324      0              10.148549      110.64252    
     44300   3.0418102      5.5437409      0              10.104228      111.06078    
     44400   3.0361735      5.3478987      0              9.8999351      108.52384    
     44500   2.973533       5.4088042      0              9.8669258      109.08498    
     44600   3.0237349      5.3657048      0              9.8990926      108.63611    
     44700   2.9981206      5.5017212      0              9.9967062      109.86966    
     44800   3.0737101      5.5199108      0              10.128225      110.46118    
     44900   3.0783989      5.5202933      0              10.135637      110.58227    
     45000   2.9786088      5.4317618      0              9.8974935      109.3188     
     45100   2.983536       5.3594484      0              9.8325672      108.37066    
     45200   3.0127512      5.3596202      0              9.8765404      108.76862    
     45300   3.0306636      5.4750151      0              10.018791      109.93365    
     45400   3.1155003      5.4310551      0              10.102024      109.60922    
     45500   2.9920578      5.4621124      0              9.9480076      109.64574    
     45600   2.9179881      5.4001667      0              9.7750117      108.7452     
     45700   2.9658258      5.3756015      0              9.8221679      108.69076    
     45800   2.9703818      5.5188819      0              9.9722791      110.17688    
     45900   2.971458       5.5746877      0              10.029698      110.6773     
     46000   3.0349789      5.4138045      0              9.9640499      109.27165    
     46100   2.8567318      5.4566551      0              9.7396605      109.52001    
     46200   2.9773692      5.2344507      0              9.6983238      107.56518    
     46300   2.9142054      5.4439298      0              9.8131035      109.50868    
     46400   3.0189397      5.4102998      0              9.9364982      109.07994    
     46500   2.9940984      5.5056464      0              9.994601       110.54786    
     46600   2.9893864      5.4869301      0              9.9688202      110.20263    
     46700   3.0238213      5.2394586      0              9.7729758      107.22362    
     46800   2.9578722      5.2664382      0              9.7010801      107.77798    
     46900   2.9715466      5.3779586      0              9.8331021      108.71724    
     47000   3.0473881      5.3574966      0              9.9263467      108.77554    
     47100   3.0367257      5.4029063      0              9.9557706      109.39056    
     47200   3.0446755      5.3858225      0              9.9506057      108.71397    
     47300   2.9737372      5.4084077      0              9.8668355      108.99855    
     47400   2.915332       5.3482566      0              9.7191194      108.18288    
     47500   2.9212296      5.3727491      0              9.7524539      108.70018    
     47600   3.0325195      5.4081203      0              9.9546784      109.14565    
     47700   2.964748       5.5484121      0              9.9933626      110.557      
     47800   2.9709506      5.4937266      0              9.9479765      110.43806    
     47900   3.043225       5.2874297      0              9.8500383      107.90978    
     48000   2.8827816      5.3823524      0              9.7044133      108.51928    
     48100   2.8787525      5.3842047      0              9.7002251      108.50231    
     48200   2.9958071      5.4574441      0              9.9489605      109.66892    
     48300   3.0564268      5.4302827      0              10.012684      109.49646    
     48400   3.1013026      5.3220591      0              9.9717416      108.32028    
     48500   2.9452189      5.4333752      0              9.8490463      109.10377    
     48600   2.9044587      5.398062       0              9.7526227      108.91404    
     48700   2.8957702      5.504519       0              9.8460534      110.27202    
     48800   3.007583       5.5482486      0              10.05742       110.41256    
     48900   3.0273554      5.4987791      0              10.037595      110.04894    
     49000   2.9855166      5.42799        0              9.9040783      109.32217    
     49100   3.0110278      5.3019576      0              9.816294       107.82277    
     49200   2.9602973      5.4064571      0              9.8447348      108.86394    
     49300   3.0614921      5.5134396      0              10.103436      110.11346    
     49400   3.1235228      5.450105       0              10.133101      109.85053    
     49500   3.0084129      5.4769624      0              9.9873783      109.57013    
     49600   2.9764486      5.4067556      0              9.8692484      109.17181    
     49700   2.8971682      5.5051644      0              9.8487948      110.12149    
     49800   2.9689597      5.4949616      0              9.9462265      110.03062    
     49900   3.0438185      5.5932656      0              10.156764      111.14861    
     50000   3.0353844      5.5734687      0              10.124322      111.09581    
Loop time of 13.2186 on 1 procs for 50000 steps with 2048 atoms

Performance: 653625.767 tau/day, 3782.557 timesteps/s, 7.747 Matom-step/s
99.7% CPU use with 1 MPI tasks x 1 OpenMP threads

MPI task timing breakdown:
Section |  min time  |  avg time  |  max time  |%varavg| %total
---------------------------------------------------------------
Pair    | 8.2538     | 8.2538     | 8.2538     |   0.0 | 62.44
Neigh   | 2.9632     | 2.9632     | 2.9632     |   0.0 | 22.42
Comm    | 0.42193    | 0.42193    | 0.42193    |   0.0 |  3.19
Output  | 0.0068724  | 0.0068724  | 0.0068724  |   0.0 |  0.05
Modify  | 1.2572     | 1.2572     | 1.2572     |   0.0 |  9.51
Other   |            | 0.3156     |            |       |  2.39

Nlocal:           2048 ave        2048 max        2048 min
Histogram: 1 0 0 0 0 0 0 0 0 0
Nghost:           1400 ave        1400 max        1400 min
Histogram: 1 0 0 0 0 0 0 0 0 0
Neighs:          12575 ave       12575 max       12575 min
Histogram: 1 0 0 0 0 0 0 0 0 0

Total # of neighbors = 12575
Ave neighs/atom = 6.1401367
Neighbor list builds = 4347
Dangerous builds = 0

unfix 1
dump           1 all atom ${run_steps} 3dWCA_T${final_temperature}_d${density}_N${run_steps}.lammpstrj
dump           1 all atom 100000 3dWCA_T${final_temperature}_d${density}_N${run_steps}.lammpstrj
dump           1 all atom 100000 3dWCA_T0.1_d${density}_N${run_steps}.lammpstrj
dump           1 all atom 100000 3dWCA_T0.1_d1.5_N${run_steps}.lammpstrj
dump           1 all atom 100000 3dWCA_T0.1_d1.5_N100000.lammpstrj
dump           2 all dcd ${thermo_time} 3dWCA_T${final_temperature}_d${density}_N${run_steps}.dcd
dump           2 all dcd 100 3dWCA_T${final_temperature}_d${density}_N${run_steps}.dcd
dump           2 all dcd 100 3dWCA_T0.1_d${density}_N${run_steps}.dcd
dump           2 all dcd 100 3dWCA_T0.1_d1.5_N${run_steps}.dcd
dump           2 all dcd 100 3dWCA_T0.1_d1.5_N100000.dcd
fix 1 all nvt temp ${initial_temperature} ${final_temperature} ${tau}
fix 1 all nvt temp 3 ${final_temperature} ${tau}
fix 1 all nvt temp 3 0.1 ${tau}
fix 1 all nvt temp 3 0.1 0.2

run ${run_steps}
run 100000
Generated 0 of 0 mixed pair_coeff terms from geometric mixing rule
Per MPI rank memory allocation (min/avg/max) = 3.296 | 3.296 | 3.296 Mbytes
   Step          Temp          E_pair         E_mol          TotEng         Press     
     50000   3.0353844      5.5734687      0              10.124322      111.09581    
     50100   2.9712924      5.5535719      0              10.008334      110.79505    
     50200   3.0459376      5.3012459      0              9.8679213      107.91037    
     50300   3.0068378      5.3487262      0              9.8567806      108.62696    
     50400   2.9587665      5.4529132      0              9.8888959      109.46223    
     50500   3.0056266      5.4497154      0              9.9559539      109.70339    
     50600   3.1048677      5.4285406      0              10.083568      109.67333    
     50700   3.0416034      5.5198586      0              10.080036      110.45268    
     50800   2.9877188      5.3838041      0              9.8631939      109.12727    
     50900   2.960841       5.3555816      0              9.7946746      108.49192    
     51000   2.9376776      5.4021773      0              9.806542       109.37967    
     51100   2.9409412      5.4915787      0              9.9008365      109.94772    
     51200   3.012034       5.5386098      0              10.054455      110.52683    
     51300   3.0509024      5.445884       0              10.020003      109.84115    
     51400   2.9632683      5.3365472      0              9.7792793      108.2962     
     51500   2.9321244      5.3447172      0              9.7407562      108.47222    
     51600   2.9213295      5.3871562      0              9.7670107      109.07753    
     51700   2.9772518      5.3915806      0              9.8552777      108.99126    
     51800   2.9867473      5.4768744      0              9.9548078      109.7074     
     51900   2.9598892      5.4868404      0              9.9245064      110.1629     
     52000   2.9471131      5.2863029      0              9.704814       107.30459    
     52100   2.8693533      5.3519934      0              9.6539218      108.33473    
     52200   2.9479048      5.2950516      0              9.7147497      107.93988    
     52300   2.9366884      5.4525977      0              9.8554795      109.7287     
     52400   2.9947884      5.445795       0              9.9357842      109.60332    
     52500   2.9485351      5.3193529      0              9.7399959      108.15587    
     52600   2.8690174      5.2958294      0              9.5972542      107.81871    
     52700   2.8652887      5.3268962      0              9.6227306      107.9135     
     52800   2.9259725      5.356086       0              9.7429017      108.59996    
     52900   2.9968378      5.3406941      0              9.8337559      108.09665    
     53000   2.9333461      5.3486444      0              9.7465152      108.5604     
     53100   2.9240908      5.146111       0              9.5301056      106.27022    
     53200   2.8641645      5.2544682      0              9.5486172      107.55538    
     53300   2.9538193      5.2358066      0              9.6643722      107.35342    
     53400   2.8876971      5.4179396      0              9.7473703      109.40726    
     53500   2.9010322      5.3672184      0              9.716642       108.56911    
     53600   2.9034008      5.1168028      0              9.4697775      105.66128    
     53700   2.8504497      5.1883257      0              9.4619126      106.21741    
     53800   2.8535344      5.3117025      0              9.5899141      108.01756    
     53900   2.8968965      5.3371649      0              9.6803879      108.19703    
     54000   2.9285555      5.2744524      0              9.6651408      107.46254    
     54100   2.8106316      5.3380088      0              9.5518976      107.6729     
     54200   2.8224518      5.0972205      0              9.3288311      105.69589    
     54300   2.7897672      5.1810314      0              9.3636388      106.007      
     54400   2.9049689      5.1411632      0              9.4964889      106.05142    
     54500   2.9057495      5.2424298      0              9.5989258      107.22992    
     54600   2.9054241      5.2762547      0              9.6322629      107.76792    
     54700   2.8818223      5.2257622      0              9.5463849      107.17435    
     54800   2.7898836      5.1691201      0              9.3519021      106.19904    
     54900   2.8295959      5.1330009      0              9.3753222      105.793      
     55000   2.8024999      5.285536       0              9.4872333      107.52766    
     55100   2.7899248      5.3606619      0              9.5435057      108.35902    
     55200   2.835379       5.2811157      0              9.5321076      107.61365    
     55300   2.8413293      5.2244683      0              9.4843813      107.05857    
     55400   2.8020397      5.1492408      0              9.3502481      105.82799    
     55500   2.7019393      5.1235339      0              9.1744639      105.64668    
     55600   2.8010466      5.074027       0              9.2735454      105.05723    
     55700   2.7496047      5.2706125      0              9.3930057      107.06975    
     55800   2.927723       5.0800197      0              9.4694599      105.3097     
     55900   2.7996321      5.3057905      0              9.5031881      107.66924    
     56000   2.8259862      5.2158885      0              9.452798       106.7669     
     56100   2.7587264      5.1354649      0              9.271534       105.98109    
     56200   2.7420699      5.1403271      0              9.2514237      105.79385    
     56300   2.8470176      5.1153666      0              9.3838079      105.68266    
     56400   2.9036173      5.1091545      0              9.4624537      105.87344    
     56500   2.7729837      5.2836737      0              9.4411183      107.63573    
     56600   2.7972003      5.1832514      0              9.3770032      106.03776    
     56700   2.8140216      5.0711856      0              9.2901569      105.00975    
     56800   2.67398        5.1468307      0              9.1558422      105.72746    
     56900   2.7064548      5.0144193      0              9.0721193      104.21228    
     57000   2.7594392      5.1238645      0              9.2610023      105.51294    
     57100   2.7967841      5.17465        0              9.3677777      105.87294    
     57200   2.8551852      5.1058604      0              9.3865469      105.55415    
     57300   2.8002844      5.1318451      0              9.3302207      105.73312    
     57400   2.7562505      5.0646722      0              9.1970292      105.00097    
     57500   2.7515969      5.0014437      0              9.1268238      104.27884    
     57600   2.769645       5.1314498      0              9.2838887      105.64594    
     57700   2.7834967      5.2486083      0              9.4218146      106.91349    
     57800   2.8366473      5.1083612      0              9.3612544      105.90063    
     57900   2.7400838      5.1195275      0              9.2276463      105.35422    
     58000   2.6850927      5.1468329      0              9.1725054      106.06333    
     58100   2.731248       5.1206301      0              9.2155016      105.71753    
     58200   2.7866282      5.2068504      0              9.3847518      106.46375    
     58300   2.9019089      5.1827301      0              9.533468       106.23708    
     58400   2.8300194      5.1637624      0              9.4067187      106.08249    
     58500   2.8069812      5.0549109      0              9.2633269      104.79936    
     58600   2.7224061      5.0839375      0              9.1655527      105.1632     
     58700   2.7096368      5.0641505      0              9.1266212      104.89231    
     58800   2.8051779      4.9616659      0              9.1673781      103.9284     
     58900   2.7927956      5.1557376      0              9.3428856      105.88288    
     59000   2.8362748      5.1101242      0              9.362459       105.45675    
     59100   2.7390637      5.1052631      0              9.2118526      105.25897    
     59200   2.7414676      5.0347788      0              9.1449722      104.43947    
     59300   2.7563091      5.0029406      0              9.1353855      104.12165    
     59400   2.6591513      5.14769        0              9.1344693      105.68508    
     59500   2.6963344      5.1040575      0              9.1465842      105.49088    
     59600   2.7662558      5.0293643      0              9.176722       104.65076    
     59700   2.732067       5.0764015      0              9.1725009      104.91502    
     59800   2.7076327      5.0181167      0              9.0775825      104.44376    
     59900   2.6412892      5.0124754      0              8.9724747      104.43289    
     60000   2.6847041      4.9539214      0              8.9790112      103.41168    
     60100   2.7937044      4.9995784      0              9.1880888      104.29006    
     60200   2.7444441      5.1059593      0              9.2206154      105.86964    
     60300   2.7219634      5.0342309      0              9.1151824      104.57796    
     60400   2.6581374      5.0295692      0              9.0148285      104.33996    
     60500   2.6564926      5.0158732      0              8.9986664      104.12484    
     60600   2.7057994      4.9724693      0              9.0291866      103.63356    
     60700   2.7159702      4.9837626      0              9.0557286      103.97961    
     60800   2.7147834      4.9949303      0              9.065117       103.84205    
     60900   2.6278186      5.0846454      0              9.0244487      104.87132    
     61000   2.7291446      4.8538721      0              8.9455901      102.68192    
     61100   2.6444468      4.9479632      0              8.9126965      102.98775    
     61200   2.7118734      4.8976433      0              8.9634672      102.82955    
     61300   2.701923       5.0302204      0              9.081126       104.28765    
     61400   2.7303648      5.0278934      0              9.1214409      104.52377    
     61500   2.6424975      4.977411       0              8.9392219      103.87972    
     61600   2.6033613      4.9399698      0              8.8431049      103.41887    
     61700   2.6197671      4.9669805      0              8.8947124      103.50692    
     61800   2.7572527      4.8718623      0              9.0057218      102.8376     
     61900   2.6818621      5.0312015      0              9.0520304      104.60653    
     62000   2.68123        4.8831147      0              8.9029959      102.50859    
     62100   2.6180736      4.8380884      0              8.7632812      102.25615    
     62200   2.6198066      4.8980144      0              8.8258056      102.7576     
     62300   2.6636668      4.9576812      0              8.9512304      103.55438    
     62400   2.601173       5.0894044      0              8.9892589      105.14018    
     62500   2.6301272      4.9672621      0              8.9105265      103.56413    
     62600   2.6521215      4.7364567      0              8.7126964      101.1612     
     62700   2.5568321      4.8966037      0              8.7299791      102.80016    
     62800   2.5957054      4.9408793      0              8.8325363      103.15875    
     62900   2.6738669      4.9101077      0              8.9189497      102.92465    
     63000   2.6114109      4.9998617      0              8.9150654      103.95606    
     63100   2.6300726      4.806488       0              8.7496706      101.62248    
     63200   2.6404575      4.6903526      0              8.6491049      100.43391    
     63300   2.6144725      4.8021846      0              8.7219785      101.55554    
     63400   2.5926884      4.9321071      0              8.8192408      103.31103    
     63500   2.6469523      4.8819633      0              8.8504531      102.54729    
     63600   2.6004096      4.9260985      0              8.8248083      102.88568    
     63700   2.6255896      4.8170082      0              8.7534696      102.12234    
     63800   2.4893164      4.7983601      0              8.5305115      101.65479    
     63900   2.4786901      4.8123268      0              8.5285465      101.43518    
     64000   2.5477901      4.8482599      0              8.668079       102.01744    
     64100   2.5688309      4.9138415      0              8.7652065      102.80782    
     64200   2.5765523      4.9357006      0              8.798642       103.21445    
     64300   2.5798668      4.8979522      0              8.7658628      102.69257    
     64400   2.5167459      4.8255197      0              8.5987952      101.69374    
     64500   2.5542878      4.71683        0              8.5463908      100.6663     
     64600   2.5545974      4.8105087      0              8.6405338      101.6179     
     64700   2.5325876      4.9213009      0              8.7183274      102.87911    
     64800   2.6128175      4.8012932      0              8.7186057      101.5242     
     64900   2.5439356      4.8679829      0              8.6820231      102.52018    
     65000   2.486704       4.8758404      0              8.6040751      102.37237    
     65100   2.5365068      4.657123       0              8.4600254      99.966368    
     65200   2.4926882      4.7268015      0              8.4640081      100.61093    
     65300   2.5513434      4.8360617      0              8.6612081      102.0831     
     65400   2.5264635      4.908678       0              8.6965227      102.74224    
     65500   2.5216347      4.8762337      0              8.6568388      102.60348    
     65600   2.5217387      4.780563       0              8.561324       101.26629    
     65700   2.5752129      4.6163648      0              8.4772979      99.368676    
     65800   2.5116609      4.7310249      0              8.4966766      100.52902    
     65900   2.589235       4.7970938      0              8.6790499      101.46079    
     66000   2.574025       4.8584425      0              8.7175946      102.16859    
     66100   2.5745415      4.7546945      0              8.6146211      100.94661    
     66200   2.4714181      4.798654       0              8.503971       101.29415    
     66300   2.5530497      4.6738864      0              8.501591       100.15583    
     66400   2.4352931      4.8872778      0              8.5384338      102.50648    
     66500   2.5257145      4.7829122      0              8.569634       101.07441    
     66600   2.5284598      4.7801582      0              8.5709961      101.44381    
     66700   2.5421668      4.6997793      0              8.5111676      100.41282    
     66800   2.3948647      4.7122994      0              8.3028424      100.07576    
     66900   2.4800136      4.634013       0              8.3522171      99.459249    
     67000   2.5248996      4.7164157      0              8.5019158      100.5259     
     67100   2.5542862      4.7349224      0              8.5644809      100.81326    
     67200   2.5303163      4.7480677      0              8.5416889      100.66621    
     67300   2.4667336      4.7022245      0              8.4005182      100.05799    
     67400   2.4095802      4.6993716      0              8.3119771      100.40319    
     67500   2.4090992      4.7519871      0              8.3638714      100.55302    
     67600   2.502836       4.669292       0              8.4217129      100.12075    
     67700   2.5374128      4.655997       0              8.4602577      100.26896    
     67800   2.5024852      4.7303627      0              8.4822576      100.54747    
     67900   2.5387479      4.6239303      0              8.4301927      99.721955    
     68000   2.4376779      4.6420172      0              8.2967486      99.428668    
     68100   2.4381884      4.6293265      0              8.2848232      99.390819    
     68200   2.5074186      4.6574191      0              8.4167104      100.09478    
     68300   2.5497995      4.6702625      0              8.4930942      99.988754    
     68400   2.4722898      4.7510458      0              8.4576698      100.91993    
     68500   2.4416562      4.7363541      0              8.39705        100.64373    
     68600   2.4487818      4.6842699      0              8.3556491      100.1612     
     68700   2.4692195      4.6379493      0              8.33997        99.580695    
     68800   2.4531772      4.6611369      0              8.3391059      99.742073    
     68900   2.4417091      4.7191874      0              8.3799628      100.51386    
     69000   2.5018973      4.6938308      0              8.4448442      100.31292    
     69100   2.4849227      4.6765608      0              8.4021248      99.928781    
     69200   2.4566733      4.5971757      0              8.2803864      98.972005    
     69300   2.359508       4.678323       0              8.2158569      99.710769    
     69400   2.4187504      4.6194207      0              8.2457747      98.995156    
     69500   2.4757198      4.704498       0              8.4162645      100.45577    
     69600   2.4594464      4.7657072      0              8.4530755      100.92051    
     69700   2.4340309      4.7100538      0              8.3593174      100.41863    
     69800   2.3859057      4.705108       0              8.282219       100.08167    
     69900   2.3762857      4.6766108      0              8.2392988      99.841164    
     70000   2.4183534      4.585729       0              8.2114877      98.748652    
     70100   2.4199774      4.5547777      0              8.1829715      98.728671    
     70200   2.4534387      4.4849038      0              8.1632649      97.743703    
     70300   2.4173997      4.5814483      0              8.2057774      98.745187    
     70400   2.3966305      4.6989881      0              8.2921785      100.03141    
     70500   2.4738821      4.613294       0              8.3223051      99.204842    
     70600   2.3694016      4.6332126      0              8.1855796      99.152601    
     70700   2.3655018      4.5364595      0              8.0829797      98.343064    
     70800   2.3344068      4.6162585      0              8.1161589      99.179556    
     70900   2.3945357      4.6142852      0              8.204335       99.049531    
     71000   2.3965623      4.6801807      0              8.2732688      100.26079    
     71100   2.4711686      4.5905256      0              8.2954686      98.81495     
     71200   2.4190783      4.5502482      0              8.1770939      98.571079    
     71300   2.3416686      4.54889        0              8.0596777      98.37485     
     71400   2.3377432      4.5368689      0              8.0417714      98.262148    
     71500   2.3961982      4.5319491      0              8.1244913      97.97731     
     71600   2.3681658      4.6874155      0              8.2379298      99.919296    
     71700   2.3862255      4.6440141      0              8.2216047      99.347742    
     71800   2.3467223      4.516075       0              8.0344396      98.10675     
     71900   2.3484178      4.488329       0              8.0092357      97.695838    
     72000   2.3054884      4.605652       0              8.062196       98.859887    
     72100   2.3303579      4.648238       0              8.142068       99.348989    
     72200   2.3513102      4.6358514      0              8.1610945      99.542997    
     72300   2.340258       4.5150705      0              8.0237435      97.95645     
     72400   2.3070185      4.4726673      0              7.9315054      97.441434    
     72500   2.3255186      4.4855143      0              7.9720889      97.567633    
     72600   2.3127583      4.6035482      0              8.0709917      98.713428    
     72700   2.4045031      4.5030309      0              8.1080244      97.982205    
     72800   2.3658222      4.5301838      0              8.0771843      97.955083    
     72900   2.3220228      4.5579496      0              8.0392832      98.343655    
     73000   2.297666       4.5369286      0              7.9817448      98.205506    
     73100   2.3226238      4.4396894      0              7.9219239      96.82611     
     73200   2.3138597      4.3872726      0              7.8563674      96.450973    
     73300   2.3001135      4.3644476      0              7.8129332      96.346681    
     73400   2.3108672      4.4586829      0              7.9232911      97.290238    
     73500   2.3412979      4.518801       0              8.029033       97.981825    
     73600   2.3739781      4.4616707      0              8.0208991      97.286488    
     73700   2.319554       4.4383946      0              7.9160267      97.03572     
     73800   2.2276292      4.476549       0              7.8163612      97.221372    
     73900   2.2632502      4.4412439      0              7.8344615      97.012846    
     74000   2.2969357      4.435464       0              7.8791853      96.758217    
     74100   2.3550697      4.4051688      0              7.9360484      96.570035    
     74200   2.299077       4.5307366      0              7.9776681      97.865634    
     74300   2.3526516      4.4282419      0              7.9554963      96.917757    
     74400   2.2652596      4.4230035      0              7.8192338      96.713209    
     74500   2.2702141      4.3565958      0              7.7602542      95.999285    
     74600   2.238112       4.4592683      0              7.8147972      97.274459    
     74700   2.3171929      4.475092       0              7.9491842      97.369098    
     74800   2.3157089      4.4869506      0              7.9588179      97.57002     
     74900   2.3493468      4.3785158      0              7.9008153      96.28984     
     75000   2.2986256      4.3953542      0              7.841609       96.335034    
     75100   2.2537125      4.4077187      0              7.7866368      96.445805    
     75200   2.261086       4.3655033      0              7.7554761      96.060586    
     75300   2.283215       4.3132814      0              7.7364317      95.322213    
     75400   2.2859741      4.3377005      0              7.7649873      95.713531    
     75500   2.2620327      4.4440993      0              7.8354916      96.984534    
     75600   2.3048494      4.4171897      0              7.8727757      96.765903    
     75700   2.2662427      4.3981888      0              7.7958929      96.364312    
     75800   2.1854252      4.3875213      0              7.6640584      96.242323    
     75900   2.1937086      4.375499       0              7.6644552      95.823993    
     76000   2.2782408      4.3147175      0              7.7304101      95.684861    
     76100   2.2570311      4.4164034      0              7.800297       96.737207    
     76200   2.2685446      4.4147601      0              7.8159155      96.667726    
     76300   2.2299391      4.3452675      0              7.6885428      95.912563    
     76400   2.1649088      4.3507375      0              7.596515       95.918642    
     76500   2.2272781      4.2715111      0              7.6107969      94.858888    
     76600   2.2766857      4.3054928      0              7.7188539      95.3461      
     76700   2.1618523      4.5404086      0              7.7816036      97.669519    
     76800   2.246942       4.3629544      0              7.7317217      95.911745    
     76900   2.2409114      4.2035978      0              7.5633236      94.068791    
     77000   2.169917       4.3029682      0              7.5562545      95.224987    
     77100   2.1796992      4.3609865      0              7.6289388      95.866776    
     77200   2.2622856      4.3121897      0              7.7039612      95.300293    
     77300   2.2267663      4.3746691      0              7.7131876      96.37661     
     77400   2.1973489      4.2654844      0              7.5598983      94.843252    
     77500   2.119336       4.308294       0              7.4857458      95.208775    
     77600   2.1794326      4.2805771      0              7.5481297      94.90557     
     77700   2.2032198      4.3383504      0              7.6415664      95.687486    
     77800   2.2176372      4.3356763      0              7.6605079      95.707127    
     77900   2.1415193      4.4035652      0              7.6142756      96.52217     
     78000   2.1718037      4.3244564      0              7.5805713      95.392593    
     78100   2.1628532      4.3241294      0              7.5668251      95.33478     
     78200   2.1274768      4.3595161      0              7.5491731      95.900849    
     78300   2.1978687      4.2248894      0              7.5200826      94.423772    
     78400   2.17989        4.1940711      0              7.4623095      93.730439    
     78500   2.1657088      4.1717326      0              7.4187096      93.802066    
     78600   2.1851781      4.2058908      0              7.4820574      93.803089    
     78700   2.1491285      4.3785496      0              7.6006683      96.21652     
     78800   2.1850727      4.3291792      0              7.6051879      95.505691    
     78900   2.1515237      4.2868563      0              7.512566       94.954371    
     79000   2.1267481      4.2686145      0              7.457179       94.486322    
     79100   2.1750996      4.2020424      0              7.4630988      93.901478    
     79200   2.2007775      4.1810635      0              7.4806179      93.612586    
     79300   2.2032214      4.1940861      0              7.4973045      94.032366    
     79400   2.1701948      4.2379785      0              7.4916812      94.634949    
     79500   2.1473614      4.2024884      0              7.4219578      93.855665    
     79600   2.1919194      4.0563864      0              7.3426601      92.009331    
     79700   2.0743396      4.2245804      0              7.3345706      94.302386    
     79800   2.1322763      4.2825745      0              7.4794272      95.109371    
     79900   2.153657       4.3039229      0              7.532831       95.224561    
     80000   2.1554788      4.2340723      0              7.4657118      94.314038    
     80100   2.1284191      4.1945117      0              7.3855814      93.775326    
     80200   2.1082207      4.2017379      0              7.3625247      93.687631    
     80300   2.1114799      4.198437       0              7.3641104      93.726318    
     80400   2.0921141      4.2344036      0              7.3710424      93.899092    
     80500   2.0815423      4.252255       0              7.3730438      94.434059    
     80600   2.1495445      4.1347183      0              7.3574606      93.260436    
     80700   2.0900096      4.1858781      0              7.3193617      93.743589    
     80800   2.0618691      4.1933331      0              7.2846266      93.953429    
     80900   2.1020368      4.1333704      0              7.2848861      92.890764    
     81000   2.1236809      4.1650681      0              7.3490341      93.688913    
     81100   2.1572147      4.2004911      0              7.4347331      93.847114    
     81200   2.1071303      4.239203       0              7.3983552      94.187629    
     81300   2.0661455      4.1459139      0              7.2436189      93.051519    
     81400   2.055926       4.1452931      0              7.2276763      92.998318    
     81500   2.0949518      4.1243466      0              7.2652399      93.176434    
     81600   2.0994149      4.1887764      0              7.336361       93.832545    
     81700   2.1688341      4.1621478      0              7.4138104      93.438588    
     81800   2.1518508      4.1693421      0              7.3955423      93.585343    
     81900   2.0578988      4.152879       0              7.2382199      93.018254    
     82000   2.0479195      4.1109006      0              7.1812799      92.508359    
     82100   2.0949277      4.0378115      0              7.1786687      91.72141     
     82200   2.0487028      4.1649072      0              7.2364609      93.185507    
     82300   2.1089367      4.176316       0              7.3381765      93.360201    
     82400   2.0649853      4.2369788      0              7.3329444      94.031812    
     82500   2.0762901      4.0506638      0              7.1635782      92.32472     
     82600   2.0639557      4.0346089      0              7.1290307      91.765778    
     82700   2.0669505      4.0533661      0              7.152278       91.933072    
     82800   2.1016789      4.0671118      0              7.2180907      92.061574    
     82900   2.0803436      4.1690845      0              7.2880763      93.492535    
     83000   2.1172745      4.0841668      0              7.2585278      92.638832    
     83100   2.0151128      4.0862929      0              7.1074862      92.390291    
     83200   1.9978988      4.0727734      0              7.0681584      92.221337    
     83300   2.0237436      4.0580865      0              7.0922196      92.16314     
     83400   2.033908       4.1362914      0              7.1856637      92.95062     
     83500   2.0987234      4.1162339      0              7.2627818      92.90356     
     83600   2.0201838      4.1325283      0              7.1613245      93.132388    
     83700   2.0053873      4.0304458      0              7.0370579      91.602404    
     83800   2.0185007      4.000982       0              7.0272547      91.219013    
     83900   1.9766629      4.1002256      0              7.0637722      92.534368    
     84000   2.0277324      4.1002338      0              7.1403472      92.708782    
     84100   2.0600505      4.0986475      0              7.1872144      92.476238    
     84200   2.0297282      4.0325567      0              7.0756624      91.871853    
     84300   1.9914049      3.9861315      0              6.9717803      91.02185     
     84400   2.006418       3.9636571      0              6.9718146      91.131551    
     84500   2.0217279      4.0045575      0              7.0356685      91.215284    
     84600   2.0314209      4.0787808      0              7.1244242      92.403752    
     84700   2.0851765      4.0165639      0              7.1428014      91.894118    
     84800   2.0170491      3.9592489      0              6.9833453      90.745748    
     84900   1.9503479      3.9959942      0              6.9200875      91.152194    
     85000   1.9691608      3.9771853      0              6.9294843      91.037686    
     85100   2.0025165      4.0005851      0              7.0028932      91.256963    
     85200   1.9915076      4.0937706      0              7.0795735      92.47115     
     85300   2.0506759      3.97513        0              7.0496418      91.07388     
     85400   1.9828111      3.9148702      0              6.8876346      90.053741    
     85500   1.9347625      3.964225       0              6.8649516      90.649209    
     85600   1.9803629      3.9448699      0              6.9139639      90.810285    
     85700   1.9959178      4.0033171      0              6.9957319      91.252001    
     85800   2.0018438      4.010327       0              7.0116265      91.663296    
     85900   1.9734568      3.8994293      0              6.8581692      90.139982    
     86000   1.9184         3.9303063      0              6.8065012      90.22562     
     86100   1.964003       3.8992945      0              6.8438604      89.981944    
     86200   1.9668848      3.9794047      0              6.9282913      91.037618    
     86300   2.0071265      3.9593422      0              6.9685619      90.889842    
     86400   1.9532988      3.9283036      0              6.8568211      90.70471     
     86500   1.9215326      3.874361       0              6.7552526      89.91325     
[...]
    128500   0.71680435     2.0779702      0              3.1526517      65.050423    
    128600   0.71993903     2.0542492      0              3.1336305      64.532929    
    128700   0.70186615     2.0655186      0              3.1178038      64.66904     
    128800   0.70834587     2.0660125      0              3.1280125      64.712827    
    128900   0.73136188     2.0680963      0              3.1646035      64.820701    
    129000   0.71969664     2.0962299      0              3.1752477      65.18517     
    129100   0.70842399     2.0658296      0              3.1279467      64.639665    
    129200   0.70917403     2.0384087      0              3.1016504      64.370146    
    129300   0.70935978     2.0339903      0              3.0975104      64.37713     
    129400   0.68443324     2.0661917      0              3.0923403      64.656744    
    129500   0.69959423     2.0255757      0              3.0744546      64.233142    
    129600   0.69047652     2.0066152      0              3.0418243      63.933272    
    129700   0.68400651     2.0007116      0              3.0262203      63.664467    
    129800   0.6794698      2.0329131      0              3.0516201      64.299641    
    129900   0.71747639     2.0176626      0              3.0933517      64.136381    
    130000   0.69756828     2.0320107      0              3.0778522      64.260041    
    130100   0.67020788     2.0361218      0              3.0409428      64.271228    
    130200   0.66923425     2.0193869      0              3.0227481      64.189436    
    130300   0.67875463     1.9915325      0              3.0091673      63.747156    
    130400   0.67208735     1.982407       0              2.9900458      63.597425    
    130500   0.66240405     1.9577624      0              2.9508833      63.152642    
    130600   0.64671323     1.9573523      0              2.9269485      63.19573     
    130700   0.64969024     1.9781236      0              2.9521831      63.641602    
    130800   0.65202555     1.9966446      0              2.9742054      63.671166    
    130900   0.65633041     1.9850685      0              2.9690834      63.674025    
    131000   0.64546109     1.9814788      0              2.9491977      63.471888    
    131100   0.64221578     1.9592681      0              2.9221214      63.198286    
    131200   0.62727256     1.9656008      0              2.9060502      63.409358    
    131300   0.6424915      1.9388668      0              2.9021335      63.038585    
    131400   0.64260487     1.9531863      0              2.9166229      63.248878    
    131500   0.64957499     1.958186       0              2.9320728      63.234831    
    131600   0.64537513     1.9505134      0              2.9181034      63.102048    
    131700   0.62804075     1.9373089      0              2.87891        62.967712    
    131800   0.63186602     1.9177138      0              2.8650501      62.73157     
    131900   0.62253812     1.929695       0              2.8630462      62.88465     
    132000   0.61665393     1.9365076      0              2.8610369      62.884932    
    132100   0.61425093     1.9188596      0              2.8397861      62.720077    
    132200   0.61106514     1.8974861      0              2.8136362      62.397288    
    132300   0.61114797     1.8918172      0              2.8080915      62.309256    
    132400   0.6188146      1.8996084      0              2.8273771      62.460668    
    132500   0.63265978     1.9111031      0              2.8596294      62.583146    
    132600   0.61560995     1.9224835      0              2.8454476      62.663979    
    132700   0.60819316     1.8917755      0              2.8036198      62.285222    
    132800   0.60372135     1.8839215      0              2.7890613      62.160282    
    132900   0.59761581     1.8749824      0              2.7709684      62.026076    
    133000   0.59819991     1.8552509      0              2.7521126      61.790804    
    133100   0.5807156      1.8660408      0              2.7366889      61.913707    
    133200   0.57894122     1.8516393      0              2.7196272      61.739497    
    133300   0.56822533     1.8550304      0              2.7069523      61.695148    
    133400   0.58336004     1.8456113      0              2.7202241      61.605526    
    133500   0.59677423     1.8556286      0              2.7503528      61.788347    
    133600   0.60106744     1.8495293      0              2.7506903      61.715383    
    133700   0.57025675     1.8567309      0              2.7116984      61.756249    
    133800   0.57946067     1.828688       0              2.6974546      61.382194    
    133900   0.57469643     1.8268042      0              2.688428       61.312148    
    134000   0.56219115     1.8296011      0              2.6724761      61.457806    
    134100   0.5596544      1.8103084      0              2.6493801      61.088816    
    134200   0.5528506      1.7989323      0              2.6278033      61.025572    
    134300   0.54778302     1.7927433      0              2.6140166      60.841528    
    134400   0.53989951     1.8045702      0              2.6140241      61.024103    
    134500   0.55941089     1.8022583      0              2.6409649      60.964514    
    134600   0.56199061     1.8127566      0              2.6553309      61.130479    
    134700   0.54912803     1.8111077      0              2.6343975      61.148645    
    134800   0.54490007     1.7861972      0              2.6031482      60.898437    
    134900   0.5425586      1.7821123      0              2.5955528      60.774052    
    135000   0.54110416     1.7764543      0              2.5877142      60.634487    
    135100   0.53435362     1.7668968      0              2.5680358      60.551983    
    135200   0.5229863      1.7554141      0              2.5395105      60.353906    
    135300   0.51768864     1.7575261      0              2.5336799      60.359143    
    135400   0.53410842     1.7700099      0              2.5707814      60.702543    
    135500   0.54291953     1.7741888      0              2.5881704      60.597847    
    135600   0.54014113     1.7509613      0              2.5607774      60.229303    
    135700   0.52760134     1.7426667      0              2.5336822      60.229755    
    135800   0.52298838     1.7313281      0              2.5154277      60.086286    
    135900   0.52211294     1.7166389      0              2.4994259      59.919869    
    136000   0.50795766     1.7239788      0              2.4855432      59.905547    
    136100   0.49092626     1.7239727      0              2.4600026      59.836729    
    136200   0.48663771     1.7036351      0              2.4332353      59.731166    
    136300   0.48330254     1.7216115      0              2.4462113      59.886365    
    136400   0.49267735     1.7258045      0              2.4644597      59.890668    
    136500   0.492126       1.72643        0              2.4642585      60.024974    
    136600   0.50740612     1.6905874      0              2.4513249      59.411796    
    136700   0.48207254     1.7052252      0              2.427981       59.680229    
    136800   0.48771298     1.685132       0              2.4163443      59.380904    
    136900   0.48966968     1.6813956      0              2.4155415      59.308629    
    137000   0.48845134     1.6807326      0              2.4130519      59.337823    
    137100   0.47733679     1.6867869      0              2.4024425      59.461812    
    137200   0.46099532     1.6811031      0              2.3722585      59.343061    
    137300   0.46981214     1.6513836      0              2.3557578      58.962393    
    137400   0.46116301     1.6705339      0              2.3619406      59.092385    
    137500   0.4649863      1.6734757      0              2.3706146      59.244136    
    137600   0.47083888     1.6639886      0              2.3699021      59.055674    
    137700   0.44383104     1.6720302      0              2.3374517      59.144845    
    137800   0.44932594     1.648525       0              2.3221848      58.867603    
    137900   0.46092991     1.6304562      0              2.3215135      58.584974    
    138000   0.45379507     1.6409012      0              2.3212614      58.78916     
    138100   0.44673687     1.6377419      0              2.30752        58.737118    
    138200   0.43771186     1.6262009      0              2.2824481      58.535884    
    138300   0.43388424     1.6240881      0              2.2745967      58.537149    
    138400   0.43617875     1.6248496      0              2.2787983      58.492083    
    138500   0.44433669     1.6314037      0              2.2975833      58.628573    
    138600   0.4395785      1.6459128      0              2.3049586      58.777909    
    138700   0.43931903     1.6137035      0              2.2723603      58.444149    
    138800   0.43439315     1.6020575      0              2.2533291      58.205201    
    138900   0.42311685     1.6009353      0              2.2353007      58.213608    
    139000   0.41941749     1.5906435      0              2.2194625      58.045731    
    139100   0.41856406     1.5810396      0              2.2085792      57.967152    
    139200   0.4062229      1.5868812      0              2.195918       57.951701    
    139300   0.39622523     1.5730308      0              2.1670784      57.799886    
    139400   0.39750752     1.5683653      0              2.1643354      57.703403    
    139500   0.40604345     1.5706445      0              2.1794123      57.80302     
    139600   0.40550365     1.5779135      0              2.1858719      57.843304    
    139700   0.39779018     1.5825541      0              2.178948       57.934253    
    139800   0.39256873     1.5759277      0              2.1644932      57.807192    
    139900   0.38778637     1.5661939      0              2.1475894      57.671296    
    140000   0.39761819     1.540574       0              2.13671        57.397827    
    140100   0.38577045     1.5506195      0              2.1289927      57.465692    
    140200   0.38683503     1.5411556      0              2.1211248      57.373132    
    140300   0.38128117     1.5414632      0              2.1131057      57.423874    
    140400   0.38365225     1.5326235      0              2.1078209      57.225498    
    140500   0.38053584     1.5270996      0              2.0976246      57.297817    
    140600   0.37051736     1.5255615      0              2.0810662      57.172441    
    140700   0.37011877     1.5142947      0              2.0692018      57.034314    
    140800   0.3689553      1.511333       0              2.0644957      56.931454    
    140900   0.35785883     1.523084       0              2.0596101      57.154445    
    141000   0.36877793     1.4989197      0              2.0518164      56.819472    
    141100   0.36201928     1.4997125      0              2.0424763      56.855493    
    141200   0.35997798     1.4951985      0              2.0349018      56.777654    
    141300   0.3567338      1.4903679      0              2.0252073      56.642438    
    141400   0.359432       1.4738559      0              2.0127406      56.527708    
    141500   0.34556142     1.4843584      0              2.0024475      56.579463    
    141600   0.34520913     1.4787811      0              1.9963419      56.58322     
    141700   0.34681355     1.4689478      0              1.9889141      56.439115    
    141800   0.33690985     1.4727866      0              1.9779046      56.470252    
    141900   0.34498906     1.4510714      0              1.9683023      56.257238    
    142000   0.33225166     1.4638568      0              1.9619909      56.36996     
    142100   0.33083496     1.4563335      0              1.9523436      56.210364    
    142200   0.32209663     1.4569875      0              1.9398965      56.293227    
    142300   0.3224836      1.447908       0              1.9313972      56.10987     
    142400   0.32409872     1.4389344      0              1.9248451      56.040457    
    142500   0.31893858     1.4372993      0              1.9154735      55.97795     
    142600   0.31649884     1.4299993      0              1.9045158      55.849426    
    142700   0.31489025     1.4249189      0              1.8970236      55.805555    
    142800   0.31677214     1.4150959      0              1.8900221      55.739196    
    142900   0.30507018     1.4219705      0              1.8793523      55.850014    
    143000   0.30139016     1.416553       0              1.8684175      55.709534    
    143100   0.30902399     1.3977942      0              1.8611038      55.512166    
    143200   0.30811291     1.3912827      0              1.8532264      55.483246    
    143300   0.29486942     1.4004674      0              1.8425555      55.514076    
    143400   0.29933572     1.3845931      0              1.8333775      55.362125    
    143500   0.29349798     1.3862999      0              1.8263319      55.360275    
    143600   0.29090427     1.3807856      0              1.8169289      55.291394    
    143700   0.2919163      1.3687503      0              1.8064109      55.152858    
    143800   0.28386581     1.3725702      0              1.798161       55.18098     
    143900   0.28430157     1.3638484      0              1.7900925      55.071183    
    144000   0.28194157     1.3575744      0              1.7802802      54.998553    
    144100   0.27329341     1.3614731      0              1.7712131      54.975302    
    144200   0.27513453     1.3504432      0              1.7629435      54.88013     
    144300   0.26553412     1.3558509      0              1.7539576      54.966004    
    144400   0.25961707     1.3550933      0              1.7443288      54.947088    
    144500   0.26768123     1.3343547      0              1.7356805      54.710749    
    144600   0.26454861     1.3305889      0              1.727218       54.676169    
    144700   0.26080467     1.3267056      0              1.7177216      54.576181    
    144800   0.25328528     1.3289079      0              1.7086503      54.638926    
    144900   0.2510517      1.3236313      0              1.700025       54.530258    
    145000   0.24157215     1.3284593      0              1.6906406      54.590279    
    145100   0.24940148     1.3077728      0              1.6816924      54.318337    
    145200   0.2432989      1.3081531      0              1.6729233      54.331978    
    145300   0.23932678     1.3050563      0              1.6638712      54.269753    
    145400   0.2411916      1.2933659      0              1.6549766      54.204119    
    145500   0.23669316     1.2913086      0              1.646175       54.162968    
    145600   0.22409331     1.301222       0              1.6371979      54.220329    
    145700   0.22626238     1.2888079      0              1.6280357      54.142015    
    145800   0.22645366     1.279809       0              1.6193236      54.00203     
    145900   0.22132154     1.2784805      0              1.6103007      53.992419    
    146000   0.22187407     1.2685883      0              1.6012369      53.919469    
    146100   0.21755433     1.2662321      0              1.5924043      53.852847    
    146200   0.21012802     1.2683632      0              1.5834013      53.867138    
    146300   0.2092081      1.2608919      0              1.5745508      53.813546    
    146400   0.20760757     1.254385       0              1.5656443      53.706291    
    146500   0.2061329      1.2476812      0              1.5567296      53.644887    
    146600   0.20012144     1.2477245      0              1.5477601      53.663634    
    146700   0.20206474     1.2358151      0              1.5387642      53.523425    
    146800   0.19568608     1.2364318      0              1.5298175      53.52026     
    146900   0.19268278     1.2320991      0              1.5209822      53.466459    
    147000   0.18936976     1.2280946      0              1.5120105      53.435401    
    147100   0.18875835     1.2200956      0              1.5030949      53.32232     
    147200   0.18410483     1.2181965      0              1.4942189      53.287118    
    147300   0.18229665     1.2120009      0              1.4853123      53.246469    
    147400   0.1750272      1.2140685      0              1.4764811      53.253233    
    147500   0.16993218     1.2127468      0              1.4675206      53.24359     
    147600   0.1712759      1.2018764      0              1.4586648      53.124235    
    147700   0.16906474     1.1963519      0              1.4498252      53.036433    
    147800   0.17156745     1.1837675      0              1.440993       52.945145    
    147900   0.16279219     1.1880961      0              1.4321651      52.968572    
    148000   0.15750341     1.1871446      0              1.4232844      52.952597    
    148100   0.15732982     1.178543       0              1.4144225      52.873698    
    148200   0.15281407     1.1765029      0              1.4056121      52.859847    
    148300   0.15140592     1.1698534      0              1.3968514      52.781688    
    148400   0.14950875     1.1638159      0              1.3879695      52.737118    
    148500   0.1486209      1.1562281      0              1.3790506      52.650307    
    148600   0.14425983     1.1539713      0              1.3702553      52.600777    
    148700   0.14141641     1.1494606      0              1.3614817      52.577361    
    148800   0.13795021     1.1459116      0              1.3527359      52.543875    
    148900   0.13673983     1.138935       0              1.3439446      52.455646    
    149000   0.13136515     1.1381692      0              1.3351207      52.454791    
    149100   0.12909112     1.1328444      0              1.3263865      52.405316    
    149200   0.12643511     1.1280867      0              1.3176467      52.35389     
    149300   0.12531111     1.121008       0              1.3088828      52.290228    
    149400   0.12291856     1.1158328      0              1.3001206      52.237545    
    149500   0.11919629     1.1125786      0              1.2912857      52.201085    
    149600   0.11412746     1.1114416      0              1.2825492      52.188532    
    149700   0.11251019     1.105131       0              1.2738139      52.12403     
    149800   0.10808784     1.1030082      0              1.2650608      52.101511    
    149900   0.10471941     1.099282       0              1.2562844      52.063093    
    150000   0.10382497     1.0919022      0              1.2475636      52.00078     
Loop time of 22.2134 on 1 procs for 100000 steps with 2048 atoms

Performance: 777908.637 tau/day, 4501.786 timesteps/s, 9.220 Matom-step/s
99.3% CPU use with 1 MPI tasks x 1 OpenMP threads

MPI task timing breakdown:
Section |  min time  |  avg time  |  max time  |%varavg| %total
---------------------------------------------------------------
Pair    | 15.271     | 15.271     | 15.271     |   0.0 | 68.75
Neigh   | 3.0289     | 3.0289     | 3.0289     |   0.0 | 13.64
Comm    | 0.69004    | 0.69004    | 0.69004    |   0.0 |  3.11
Output  | 0.13011    | 0.13011    | 0.13011    |   0.0 |  0.59
Modify  | 2.5136     | 2.5136     | 2.5136     |   0.0 | 11.32
Other   |            | 0.5799     |            |       |  2.61

Nlocal:           2048 ave        2048 max        2048 min
Histogram: 1 0 0 0 0 0 0 0 0 0
Nghost:           1381 ave        1381 max        1381 min
Histogram: 1 0 0 0 0 0 0 0 0 0
Neighs:          12289 ave       12289 max       12289 min
Histogram: 1 0 0 0 0 0 0 0 0 0

Total # of neighbors = 12289
Ave neighs/atom = 6.0004883
Neighbor list builds = 4654
Dangerous builds = 0
Total wall time: 0:00:35
