LAMMPS (15 Sep 2022)
OMP_NUM_THREADS environment is not set. Defaulting to 1 thread. (src/comm.cpp:98)
  using 1 OpenMP thread(s) per MPI task
# 3d WCA system, random initial configuration

#variable density equal 0.5
variable initial_temperature equal 3.0
variable final_temperature equal 0.1
variable dt equal 0.002
variable tau equal 100*${dt}
variable tau equal 100*0.002
variable thermo_time equal 50000*${dt}
variable thermo_time equal 50000*0.002
variable equil_steps equal 50000
variable run_steps equal 100000

units           lj
atom_style      atomic
dimension       3

lattice         fcc ${density}
lattice         fcc 0.9
Lattice spacing in x,y,z = 1.6441414 1.6441414 1.6441414
region          box block 0 8 0 8 0 8
# number of atom types
create_box      1 box
Created orthogonal box = (0 0 0) to (13.153131 13.153131 13.153131)
  1 by 1 by 1 MPI processor grid
create_atoms    1 box
Created 2048 atoms
  using lattice units in orthogonal box = (0 0 0) to (13.153131 13.153131 13.153131)
  create_atoms CPU = 0.000 seconds
mass 1 1.0

velocity all create ${initial_temperature} 12345
velocity all create 3 12345

pair_style      lj/cut 1.0
#type_1 type_2 epsilon sigma cutoff
pair_coeff      1 1 10.0 0.89089871814 1.0
pair_modify shift yes

timestep ${dt}
timestep 0.002
thermo ${thermo_time}
thermo 100

fix 1 all nvt temp ${initial_temperature} ${initial_temperature} ${tau}
fix 1 all nvt temp 3 ${initial_temperature} ${tau}
fix 1 all nvt temp 3 3 ${tau}
fix 1 all nvt temp 3 3 0.2
run ${equil_steps}
run 50000
Generated 0 of 0 mixed pair_coeff terms from geometric mixing rule
Neighbor list info ...
  update: every = 1 steps, delay = 0 steps, check = yes
  max neighbors/atom: 2000, page size: 100000
  master list distance cutoff = 1.3
  ghost atom cutoff = 1.3
  binsize = 0.65, bins = 21 21 21
  1 neighbor lists, perpetual/occasional/extra = 1 0 0
  (1) pair lj/cut, perpetual
      attributes: half, newton on
      pair build: half/bin/atomonly/newton
      stencil: half/bin/3d
      bin: standard
Per MPI rank memory allocation (min/avg/max) = 3.176 | 3.176 | 3.176 Mbytes
   Step          Temp          E_pair         E_mol          TotEng         Press     
         0   3              0              0              4.4978027      2.6986816    
       100   2.5098861      0.98930986     0              4.7523007      14.198153    
       200   2.6950798      1.1642886      0              5.2049344      16.058553    
       300   2.9491215      1.2184584      0              5.6399805      16.840788    
       400   3.0871867      1.3094811      0              5.938          17.860545    
       500   3.0750714      1.3528201      0              5.9631749      17.748147    
       600   3.0298999      1.1877695      0              5.7304003      16.622637    
       700   2.8662006      1.3032305      0              5.6004321      17.463425    
       800   2.968815       1.2790658      0              5.7301139      17.391831    
       900   3.0727934      1.2983453      0              5.9052848      17.445899    
      1000   3.0451236      1.2999486      0              5.8654037      17.698822    
      1100   2.9228979      1.3087537      0              5.6909597      17.584856    
      1200   2.8967201      1.299061       0              5.6420194      17.352135    
      1300   2.9826979      1.277678       0              5.7495402      17.391082    
      1400   3.0467471      1.3081377      0              5.8760268      17.593178    
      1500   3.0452692      1.2823325      0              5.8480059      17.306346    
      1600   2.9518826      1.2765195      0              5.7021814      17.270663    
      1700   2.9492798      1.223619       0              5.6453786      16.793145    
      1800   2.9429342      1.3619633      0              5.7742091      17.936558    
      1900   3.0368303      1.3587054      0              5.9117267      18.122596    
      2000   3.0388597      1.2891451      0              5.8452089      17.540351    
      2100   2.9496568      1.3192772      0              5.741602       17.66688     
      2200   2.9842292      1.2370436      0              5.7112017      17.070038    
      2300   2.9778673      1.3003832      0              5.7650031      17.36573     
      2400   3.034038       1.3775125      0              5.9263473      18.253087    
      2500   3.0406531      1.3531486      0              5.9119012      17.984013    
      2600   2.9701194      1.2548662      0              5.7078699      17.127602    
      2700   2.9790133      1.2334934      0              5.6998315      16.926678    
      2800   3.0022782      1.2706579      0              5.7718762      17.395957    
      2900   3.008277       1.3588776      0              5.8690898      17.919246    
      3000   3.0257846      1.32913        0              5.8655907      17.731295    
      3100   2.9417187      1.2240227      0              5.6344462      16.893866    
      3200   2.9273244      1.2470256      0              5.6358682      16.852774    
      3300   3.0541936      1.22286        0              5.8019134      16.964308    
      3400   3.04683        1.2857964      0              5.8538098      17.276591    
      3500   2.9605943      1.3397631      0              5.7784861      17.995447    
      3600   2.9217382      1.2877987      0              5.6682661      17.373159    
      3700   2.9214304      1.2749956      0              5.6550015      17.247073    
      3800   2.9898119      1.3556763      0              5.8382044      18.072016    
      3900   3.0589754      1.3302905      0              5.9165132      17.903802    
      4000   3.0131829      1.2882832      0              5.8058507      17.405781    
      4100   2.942129       1.2771333      0              5.6881719      17.388227    
      4200   2.9890558      1.2443381      0              5.7257326      16.999324    
      4300   3.0422322      1.284995       0              5.8461151      17.695819    
      4400   3.1390427      1.3390206      0              6.0452856      17.906843    
      4500   3.0769555      1.2990439      0              5.9122235      17.521862    
      4600   2.991275       1.2411084      0              5.72583        17.099705    
      4700   2.9398446      1.3112858      0              5.7188995      17.395035    
      4800   3.0296404      1.2736518      0              5.8158933      17.222082    
      4900   3.0460539      1.285865       0              5.8527149      17.573786    
      5000   3.0164208      1.249288       0              5.7717099      17.249348    
      5100   2.9350403      1.212359       0              5.6127698      16.714854    
      5200   2.921835       1.2893498      0              5.6699623      17.319246    
      5300   3.0143633      1.3276648      0              5.847002       17.849844    
      5400   3.0297744      1.2929561      0              5.8353987      17.508185    
      5500   3.0287696      1.2039318      0              5.7448678      16.740259    
      5600   2.9685341      1.2228495      0              5.6734764      16.923526    
      5700   2.9929946      1.3083249      0              5.7956246      17.44912     
      5800   3.1062206      1.278499       0              5.9355548      17.513206    
      5900   3.0156292      1.3144183      0              5.8356534      17.603941    
      6000   2.9910393      1.2603314      0              5.7446997      17.122992    
      6100   2.9924872      1.2420545      0              5.7285936      17.069802    
      6200   2.967669       1.33582        0              5.7851499      17.79841     
      6300   3.1332787      1.3244415      0              6.0220646      17.984443    
      6400   3.1335662      1.3341603      0              6.0322145      18.046865    
      6500   3.0718321      1.2554511      0              5.8609493      17.393825    
      6600   2.9852984      1.2978588      0              5.7736199      17.445711    
      6700   2.9526927      1.2802262      0              5.7071027      17.334691    
      6800   3.0203819      1.2209442      0              5.7493049      16.995011    
      6900   3.0662708      1.3191883      0              5.9163486      17.687967    
      7000   3.0558749      1.3445054      0              5.9260796      17.959455    
      7100   3.0406891      1.1590307      0              5.7178373      16.264815    
      7200   2.9822675      1.2270694      0              5.6982864      16.6566      
      7300   2.9905241      1.3009328      0              5.7845286      17.394957    
      7400   3.030371       1.3258939      0              5.8692309      17.991224    
      7500   3.0054252      1.3076627      0              5.8135992      17.625519    
      7600   2.9280966      1.2325671      0              5.6225674      17.032731    
      7700   2.9428177      1.2452773      0              5.6573485      16.8552      
      7800   3.0277403      1.2073048      0              5.7466977      16.715371    
      7900   2.9687399      1.3244261      0              5.7753615      17.761994    
      8000   2.9918304      1.3329319      0              5.8184861      17.764547    
      8100   3.0518594      1.2416407      0              5.8171945      17.104716    
      8200   2.9188718      1.2561054      0              5.6322752      16.990263    
      8300   2.9095309      1.2326707      0              5.594836       17.034569    
      8400   2.9899184      1.2911422      0              5.7738299      17.332099    
      8500   3.0360338      1.2676033      0              5.8194302      17.110407    
      8600   3.0123516      1.242714       0              5.7590352      17.124279    
      8700   2.9768876      1.2376965      0              5.7008476      17.121555    
      8800   2.9488801      1.326498       0              5.7476584      17.792423    
      8900   3.0596917      1.3286942      0              5.9159908      17.709463    
      9000   3.0848299      1.2540335      0              5.8790189      17.394444    
      9100   2.9548982      1.2915795      0              5.7217625      17.390094    
      9200   3.0033123      1.1966939      0              5.6994627      16.639044    
      9300   2.9744724      1.2811249      0              5.7406549      17.243274    
      9400   2.9859438      1.2854699      0              5.7621986      17.312236    
      9500   3.0069039      1.2568619      0              5.7650153      17.177029    
      9600   3.0006161      1.2803096      0              5.779036       17.458709    
      9700   3.0319458      1.2451215      0              5.7908196      17.215042    
      9800   3.0079898      1.2648874      0              5.774669       17.171326    
      9900   2.9890813      1.2161158      0              5.6975485      16.80096     
     10000   2.9321539      1.1888821      0              5.5849653      16.5294      
     10100   2.9639304      1.2712251      0              5.7149499      17.447595    
     10200   3.0568884      1.2716435      0              5.8547371      17.264249    
     10300   3.0058549      1.3217184      0              5.8282993      17.723008    
     10400   2.9346332      1.2879655      0              5.6877658      17.324739    
     10500   2.9751856      1.2100498      0              5.6706491      16.610247    
     10600   3.0401663      1.3474543      0              5.9054771      17.934542    
     10700   3.0451137      1.3799722      0              5.9454125      18.170031    
     10800   3.0270449      1.2617018      0              5.800052       17.186485    
     10900   2.9874178      1.1941572      0              5.6730958      16.640772    
     11000   2.954179       1.2627582      0              5.691863       17.155901    
     11100   3.0521384      1.2806102      0              5.8565824      17.278834    
     11200   3.0814344      1.2623475      0              5.8822421      17.39589     
     11300   3.0366452      1.2664381      0              5.8191818      17.328374    
     11400   2.9756993      1.3087505      0              5.77012        17.572378    
     11500   2.9882229      1.2650442      0              5.7451899      17.29515     
     11600   2.977524       1.3068551      0              5.7709603      17.578175    
     11700   3.0530632      1.314197       0              5.8915558      17.658347    
     11800   3.0632813      1.2990303      0              5.8917086      17.705968    
     11900   2.9953848      1.2208808      0              5.7117642      16.803063    
     12000   2.9262497      1.2751713      0              5.6624025      17.253491    
     12100   3.0285389      1.2065629      0              5.7471531      16.686026    
     12200   3.0493408      1.2632371      0              5.8350148      17.181263    
     12300   3.0344598      1.2379233      0              5.7873905      16.872637    
     12400   2.8622741      1.2641853      0              5.5555001      17.126258    
     12500   2.9650023      1.2228263      0              5.6681582      16.921537    
     12600   2.9903368      1.3262951      0              5.8096101      17.741275    
     12700   3.0071716      1.3080037      0              5.8165586      17.618394    
     12800   2.920023       1.3435701      0              5.7214659      17.931201    
     12900   2.9234716      1.2621074      0              5.6451735      17.375999    
     13000   2.949747       1.3088372      0              5.7312973      17.53234     
     13100   3.0649581      1.2989253      0              5.8941176      17.497001    
     13200   3.0846487      1.2579592      0              5.882673       17.142138    
     13300   2.9432974      1.3042866      0              5.7170769      17.622433    
     13400   2.9292009      1.2795583      0              5.6712143      17.34137     
     13500   2.9916102      1.2690587      0              5.7542829      17.306276    
     13600   3.0049811      1.3029214      0              5.8081922      17.632563    
     13700   2.9926107      1.3201162      0              5.8068404      17.713223    
     13800   2.9950252      1.2312158      0              5.7215599      16.889047    
     13900   2.9206049      1.1863357      0              5.565104       16.604681    
     14000   2.9739918      1.2028334      0              5.6616429      16.768045    
     14100   3.0430798      1.2585435      0              5.8209344      17.344684    
     14200   3.0232933      1.2906609      0              5.8233865      17.445172    
     14300   2.9956571      1.2609439      0              5.7522355      17.267565    
     14400   2.9536021      1.2356959      0              5.6639357      17.076246    
     14500   2.922363       1.2599903      0              5.6413944      17.050505    
     14600   3.0536157      1.2399876      0              5.8181747      17.122656    
     14700   3.0439261      1.3308012      0              5.8944608      17.710132    
     14800   3.0041567      1.281953       0              5.7859877      17.394276    
     14900   2.9593991      1.2365561      0              5.6734872      16.993236    
     15000   2.9696785      1.2451228      0              5.6974655      16.839517    
     15100   3.0253065      1.1955571      0              5.7313011      16.700913    
     15200   2.9585601      1.3322819      0              5.7679552      17.723945    
     15300   3.0065038      1.2811521      0              5.7887058      17.291233    
     15400   2.979932       1.334014       0              5.8017295      17.720417    
     15500   3.0210489      1.2273079      0              5.7566686      16.964853    
     15600   3.0003185      1.2193257      0              5.717606       16.958594    
     15700   3.017464       1.2790734      0              5.8030593      17.368231    
     15800   3.0989518      1.2669679      0              5.9131258      17.362953    
     15900   3.0197193      1.2884969      0              5.8158642      17.503034    
     16000   2.9066957      1.2745573      0              5.6324719      17.284915    
     16100   2.9436254      1.268484       0              5.6817662      17.226614    
     16200   2.9671965      1.3509848      0              5.7996062      18.036424    
     16300   3.0062276      1.338289       0              5.8454286      17.828557    
     16400   3.004084       1.3038882      0              5.8078139      17.753992    
     16500   2.9548286      1.2238125      0              5.6538913      16.890518    
     16600   2.8723262      1.2200578      0              5.5264434      16.840839    
     16700   2.896886       1.342367       0              5.6855743      17.867459    
     16800   2.9911465      1.3112729      0              5.7958018      17.559057    
     16900   2.9968671      1.3400621      0              5.8331678      17.810118    
     17000   3.0401475      1.2513021      0              5.8092967      17.323585    
     17100   2.935658       1.2672697      0              5.6686065      17.262623    
     17200   2.94359        1.1981804      0              5.6114094      16.559819    
     17300   3.005207       1.2966091      0              5.8022186      17.394409    
     17400   3.0425706      1.3014878      0              5.8631153      17.622913    
     17500   3.0612348      1.2199437      0              5.8095538      16.88541     
     17600   2.9384278      1.3275654      0              5.733055       17.587236    
     17700   3.009722       1.1951295      0              5.707508       16.678345    
     17800   2.972718       1.3113431      0              5.7682429      17.589688    
     17900   3.0557014      1.3083841      0              5.8896982      17.713762    
     18000   3.026901       1.3081649      0              5.8462994      17.452182    
     18100   2.8993917      1.3426811      0              5.689645       17.866424    
     18200   2.9306708      1.2954585      0              5.6893182      17.631167    
     18300   3.0693458      1.2239698      0              5.8257404      16.838658    
     18400   3.0791111      1.290552       0              5.9069634      17.385823    
     18500   3.0080672      1.3260597      0              5.8359573      17.759973    
     18600   2.9894568      1.3183717      0              5.8003673      17.830553    
     18700   3.0180881      1.250934       0              5.7758556      17.198333    
     18800   2.9692155      1.2897955      0              5.7414439      17.415471    
     18900   2.9706382      1.2803449      0              5.7341265      17.391295    
     19000   3.0273174      1.2751078      0              5.8138667      17.368405    
     19100   3.02726        1.3680891      0              5.9067619      17.88125     
     19200   3.0656737      1.2822622      0              5.8785273      17.513088    
     19300   2.9554883      1.2569343      0              5.6880021      17.139391    
     19400   2.9396834      1.2442256      0              5.6515976      16.962022    
     19500   2.9946726      1.2752204      0              5.765036       17.510291    
     19600   3.0483027      1.2729613      0              5.8431828      17.422642    
     19700   3.0512464      1.2266368      0              5.8012717      16.919772    
     19800   2.9182305      1.3674602      0              5.7426685      18.068192    
     19900   2.9897484      1.2718826      0              5.7543155      17.34347     
     20000   3.0772021      1.269746       0              5.8832954      17.303589    
     20100   3.1021388      1.3186884      0              5.9696245      17.62497     
     20200   2.9659606      1.3287932      0              5.7755617      17.82392     
     20300   2.9737486      1.2522406      0              5.7106855      17.098294    
     20400   3.0103001      1.2492325      0              5.7624778      17.166609    
     20500   3.0433546      1.2653247      0              5.8281276      17.424009    
     20600   3.02415        1.3189821      0              5.8529922      17.73747     
     20700   2.9874832      1.2337151      0              5.7127518      17.081897    
     20800   2.9621654      1.2379752      0              5.6790537      16.939277    
     20900   3.0425353      1.2434838      0              5.8050583      17.228627    
     21000   3.0486962      1.317492       0              5.8883033      17.665602    
     21100   2.9942381      1.2633067      0              5.7524708      17.078377    
     21200   2.955396       1.1673164      0              5.5982457      16.504691    
     21300   2.9928169      1.2286201      0              5.7156535      16.975333    
     21400   3.0569454      1.2345142      0              5.8176933      17.00481     
     21500   2.9401845      1.3968851      0              5.8050083      18.286722    
     21600   2.9644403      1.3321176      0              5.7766069      17.831092    
     21700   2.9498327      1.3428239      0              5.7654125      17.824622    
     21800   3.0025652      1.2322058      0              5.7338545      17.053223    
     21900   2.9544918      1.3150191      0              5.7445929      17.640402    
     22000   3.0117883      1.3490152      0              5.8644918      17.880166    
     22100   3.0774731      1.2923569      0              5.9063125      17.454006    
     22200   2.9399009      1.2904121      0              5.6981102      17.420634    
     22300   2.9620094      1.2358301      0              5.6766748      17.064476    
     22400   2.9877287      1.2958393      0              5.775244       17.56063     
     22500   3.0120282      1.3293475      0              5.8451838      17.836652    
     22600   3.0334494      1.2562605      0              5.8042127      17.525158    
     22700   2.917696       1.2137526      0              5.5881596      16.692791    
     22800   2.8883709      1.2562409      0              5.5866818      17.046847    
     22900   2.9416138      1.3228885      0              5.7331546      17.657892    
     23000   2.9668447      1.3513649      0              5.799459       17.856955    
     23100   3.0480508      1.2278198      0              5.7976635      17.024569    
     23200   2.93615        1.2728493      0              5.6749237      17.071447    
     23300   2.9244173      1.2192559      0              5.6037399      16.647522    
     23400   2.9887134      1.3214796      0              5.8023606      17.726784    
     23500   3.0504833      1.3280198      0              5.9015105      17.796165    
     23600   3.0162915      1.2973416      0              5.8195696      17.561806    
     23700   2.9322569      1.3072869      0              5.7035245      17.537949    
     23800   2.9362326      1.3098731      0              5.7120714      17.564602    
     23900   3.0553367      1.3021778      0              5.8829451      17.356108    
     24000   3.0849417      1.3611261      0              5.9862792      18.06137     
     24100   2.9889599      1.1944185      0              5.6756691      16.558177    
     24200   2.9670085      1.2176631      0              5.6660027      16.829403    
     24300   3.0079905      1.2801337      0              5.7899162      17.460041    
     24400   3.0294394      1.3449072      0              5.8868474      17.962226    
     24500   3.0318563      1.3175236      0              5.8630875      17.700412    
     24600   2.9695501      1.26341        0              5.7155602      17.35391     
     24700   2.9477458      1.2514324      0              5.6708922      17.206568    
     24800   2.9936564      1.3388659      0              5.827158       17.885799    
     24900   3.069368       1.3179209      0              5.9197247      17.747977    
     25000   3.0395517      1.2849291      0              5.8420304      17.504863    
     25100   2.9592093      1.286757       0              5.7234036      17.27497     
     25200   2.9556497      1.2717308      0              5.7030406      17.256009    
     25300   3.0204932      1.3076712      0              5.8361987      17.738794    
     25400   3.1266576      1.2943206      0              5.9820169      17.600547    
     25500   3.0550239      1.2925816      0              5.8728799      17.492328    
     25600   3.0220198      1.2600651      0              5.7908814      17.124397    
     25700   2.9786845      1.2659653      0              5.7318105      17.185035    
     25800   3.0009463      1.23916        0              5.7383815      17.055875    
     25900   2.9951535      1.3143252      0              5.8048617      17.427354    
     26000   3.0559655      1.2856491      0              5.8673592      17.507097    
     26100   3.0428221      1.2572186      0              5.8192231      17.312906    
     26200   2.9400163      1.2744711      0              5.6823422      17.251116    
     26300   2.9268457      1.2480407      0              5.6361655      17.023804    
     26400   3.0483255      1.261235       0              5.8314905      17.236894    
     26500   3.0699232      1.2849122      0              5.8875485      17.508184    
     26600   3.0103655      1.2849653      0              5.7983086      17.374093    
     26700   2.9500389      1.3066814      0              5.729579       17.571893    
     26800   2.9613764      1.2587598      0              5.6986554      17.17385     
     26900   2.9250093      1.2747087      0              5.6600804      17.232836    
     27000   3.0269922      1.2142885      0              5.7525598      16.809684    
     27100   3.0503996      1.2790048      0              5.85237        17.285395    
     27200   2.9928822      1.340994       0              5.8281253      17.86928     
     27300   2.9262512      1.3138894      0              5.7011229      17.592282    
     27400   2.8934371      1.2925098      0              5.6305463      17.222764    
     27500   3.0242158      1.2908292      0              5.8249378      17.320889    
     27600   3.0483601      1.3328621      0              5.9031696      17.768945    
     27700   3.0129866      1.2934124      0              5.8106855      17.474116    
     27800   2.9335849      1.3009546      0              5.6991833      17.516083    
     27900   2.9844733      1.2279283      0              5.7024524      16.960006    
     28000   3.0650111      1.2031001      0              5.7983718      16.774688    
     28100   3.0418782      1.3020318      0              5.8626212      17.454023    
     28200   3.0362751      1.336232       0              5.8884208      17.834242    
     28300   3.0080723      1.2396547      0              5.74956        17.168914    
     28400   2.9727324      1.1889267      0              5.6458481      16.599501    
     28500   2.969411       1.2589711      0              5.7109128      17.355255    
     28600   3.0994198      1.2053124      0              5.8521721      16.871428    
     28700   3.0613191      1.2497642      0              5.8395007      17.381625    
     28800   3.0166852      1.185918       0              5.7087364      16.586999    
     28900   2.8953494      1.2082559      0              5.5491593      16.705568    
     29000   2.9642584      1.2350675      0              5.679284       16.899625    
     29100   2.9427033      1.3534505      0              5.7653502      17.777224    
     29200   3.0398873      1.2747759      0              5.8323804      17.71693     
     29300   2.9930954      1.3565497      0              5.8440006      18.038218    
     29400   2.9843172      1.2336552      0              5.7079452      16.883238    
     29500   2.8992859      1.2533948      0              5.6002002      17.059481    
     29600   3.0024288      1.2253997      0              5.7268438      17.031045    
     29700   3.0007905      1.3021088      0              5.8010967      17.520437    
     29800   3.0369052      1.2507882      0              5.8039217      17.293727    
     29900   2.9809997      1.2798028      0              5.749119       17.17165     
     30000   2.9686232      1.179832       0              5.6305926      16.368111    
     30100   2.9204444      1.2261565      0              5.6046841      16.580118    
     30200   3.038527       1.2485678      0              5.8041328      17.20023     
     30300   3.058676       1.2832664      0              5.8690402      17.361675    
     30400   2.9972579      1.2847964      0              5.778488       17.372933    
     30500   2.9501716      1.246243       0              5.6693396      16.931375    
     30600   2.9562855      1.192247       0              5.62451        16.673013    
     30700   2.980113       1.3589687      0              5.8269554      17.986217    
     30800   3.0607235      1.323084       0              5.9119275      17.723757    
     30900   2.987031       1.3204071      0              5.7987659      17.779969    
     31000   2.9045919      1.3254972      0              5.6802577      17.577102    
     31100   2.9891438      1.238783       0              5.7203094      17.093487    
     31200   3.022451       1.3389688      0              5.8704316      17.829491    
     31300   3.131282       1.3202178      0              6.0148474      17.816133    
     31400   2.9618144      1.3255679      0              5.7661202      17.727412    
     31500   2.9656326      1.2235567      0              5.6698334      16.948563    
     31600   2.9601764      1.2866908      0              5.7247872      17.243888    
     31700   3.0252592      1.3101786      0              5.8458517      17.710578    
     31800   3.1262163      1.2076781      0              5.8947128      17.010785    
     31900   2.9970297      1.2627737      0              5.7561231      17.266022    
     32000   2.9604342      1.1866758      0              5.6251589      16.514847    
     32100   2.9774678      1.237465       0              5.701486       17.190309    
     32200   3.0040549      1.2762767      0              5.7801588      17.21952     
     32300   3.0369125      1.2424365      0              5.795581       17.037345    
     32400   2.9930923      1.2981355      0              5.7855818      17.516762    
     32500   2.9987059      1.2734786      0              5.7693412      17.226377    
     32600   2.9113283      1.2317604      0              5.5966206      16.801082    
     32700   2.8373337      1.2914303      0              5.5453528      17.231368    
     32800   3.0259006      1.2058634      0              5.742498       16.720121    
     32900   3.0540574      1.238766       0              5.8176152      16.955014    
     33000   3.05985        1.2222238      0              5.8097577      16.913762    
     33100   2.9812516      1.2549605      0              5.7246544      17.073572    
     33200   2.9410669      1.2051273      0              5.6145736      16.840158    
     33300   2.9285966      1.2811563      0              5.6719062      17.35168     
     33400   3.0918629      1.2323536      0              5.8678835      17.125385    
     33500   3.0366896      1.2914044      0              5.8442147      17.469984    
     33600   2.953872       1.3054722      0              5.7341166      17.609145    
     33700   2.9100276      1.3175229      0              5.6804329      17.74529     
     33800   2.9967249      1.3677462      0              5.8606387      18.138687    
     33900   3.1032858      1.2962221      0              5.9488779      17.610735    
     34000   3.0234307      1.2646988      0              5.7976303      17.216985    
     34100   2.9830508      1.2467041      0              5.7190955      17.088626    
     34200   2.9756392      1.2718         0              5.7330793      17.362528    
     34300   2.9938031      1.3324118      0              5.8209238      17.631129    
     34400   3.1668742      1.2539843      0              6.0019762      17.255447    
     34500   3.0666237      1.3422084      0              5.9398979      17.901508    
     34600   3.0068677      1.2257168      0              5.7338161      17.055067    
     34700   3.0130151      1.2053212      0              5.7226371      16.737708    
     34800   3.0416661      1.2412254      0              5.8014969      17.06032     
     34900   3.0089496      1.3420263      0              5.8532469      17.917441    
     35000   2.9616071      1.3473308      0              5.7875723      17.897685    
     35100   2.9570494      1.210985       0              5.6443933      16.869061    
     35200   2.9476161      1.2683671      0              5.6876323      17.166605    
     35300   3.1323632      1.1899716      0              5.8862222      16.655971    
     35400   2.9761463      1.3991289      0              5.8611685      18.17686     
     35500   2.9764888      1.334087       0              5.7966402      17.830656    
     35600   2.9939268      1.2563601      0              5.7450575      17.292049    
     35700   2.9942899      1.228338       0              5.7175798      17.035943    
     35800   3.0146975      1.267799       0              5.7876373      17.38743     
     35900   3.049624       1.2873963      0              5.8595987      17.541488    
     36000   3.0275322      1.2630457      0              5.8021266      17.132397    
     36100   2.9042823      1.3026754      0              5.6569717      17.381881    
     36200   2.9511291      1.2402796      0              5.6648117      16.743107    
     36300   3.0859837      1.2405157      0              5.8672311      17.119243    
     36400   3.0546117      1.3385474      0              5.9182276      18.042633    
     36500   3.0211206      1.3051884      0              5.8346566      17.540881    
     36600   3.0006376      1.2238525      0              5.7226112      16.874143    
     36700   2.9307677      1.2992725      0              5.6932775      17.445828    
     36800   3.0170951      1.284171       0              5.8076038      17.512364    
     36900   3.1052008      1.3544778      0              6.0100047      18.143097    
     37000   3.0593967      1.3417473      0              5.9286016      17.873902    
     37100   2.9936565      1.2767452      0              5.7650374      17.414636    
     37200   2.9671869      1.3038392      0              5.7524463      17.522225    
     37300   2.9714103      1.3439722      0              5.7989113      18.058224    
     37400   3.0414974      1.3033595      0              5.863378       17.601404    
     37500   2.9959496      1.3110918      0              5.8028219      17.66043     
     37600   2.9502142      1.218791       0              5.6419515      16.799978    
     37700   2.90608        1.3069418      0              5.6639333      17.604535    
     37800   3.0302402      1.3063767      0              5.8495176      17.701927    
     37900   3.0162022      1.3272926      0              5.8493868      17.811322    
     38000   3.0252911      1.2522039      0              5.7879249      17.046087    
     38100   2.9774188      1.2315765      0              5.6955241      16.893479    
     38200   2.9661164      1.2228362      0              5.6698384      16.747796    
     38300   3.0573564      1.310142       0              5.8939374      17.498692    
     38400   3.078521       1.2963255      0              5.9118523      17.56632     
     38500   2.9639185      1.3348963      0              5.7786033      17.647923    
     38600   2.9257158      1.3312713      0              5.7177021      17.726144    
     38700   2.98892        1.2632772      0              5.7444681      17.101287    
     38800   3.0422347      1.3053087      0              5.8664326      17.643449    
     38900   3.1427058      1.3777511      0              6.089508       18.230617    
     39000   3.0844624      1.2992489      0              5.9236834      17.663623    
     39100   3.0046113      1.2913615      0              5.7960779      17.349293    
     39200   2.9874181      1.2132421      0              5.6921811      16.862814    
     39300   2.9420464      1.2454644      0              5.6563791      17.108063    
     39400   2.992506       1.3534633      0              5.8400305      17.930125    
     39500   3.066327       1.3078655      0              5.9051102      17.687432    
     39600   3.0802437      1.1925728      0              5.8106823      16.909458    
     39700   2.955287       1.2916647      0              5.7224308      17.239338    
     39800   2.9482618      1.2956219      0              5.7158552      17.49879     
     39900   3.0486033      1.2902755      0              5.8609475      17.472883    
     40000   3.1370995      1.3329957      0              6.0363471      17.754129    
     40100   3.0538104      1.3131304      0              5.8916093      17.654762    
     40200   2.9775279      1.3032525      0              5.7673636      17.728979    
     40300   2.98122        1.276041       0              5.7456875      17.370227    
     40400   2.9986433      1.2915092      0              5.7872778      17.511919    
     40500   3.0395534      1.3677615      0              5.9248655      18.137119    
     40600   3.0921474      1.3171362      0              5.9530926      17.825837    
     40700   2.9538456      1.292326       0              5.720931       17.487722    
     40800   2.9051818      1.3381827      0              5.6938276      17.814577    
     40900   2.9694241      1.34141        0              5.7933713      17.90638     
     41000   3.0380378      1.3219217      0              5.8767533      17.673778    
     41100   2.9740515      1.3011553      0              5.7600543      17.527413    
     41200   2.943978       1.1848403      0              5.5986511      16.71152     
     41300   2.9822586      1.2170322      0              5.6882359      16.893328    
     41400   3.0540183      1.2146356      0              5.7934262      16.813385    
     41500   3.0344509      1.2409246      0              5.7903784      17.203501    
     41600   3.0014948      1.228175       0              5.7282188      16.817312    
     41700   2.8958368      1.2145216      0              5.5561557      16.762946    
     41800   2.9172656      1.2242661      0              5.5980278      17.122051    
     41900   2.956587       1.3605031      0              5.7932181      18.264353    
     42000   3.0325899      1.3044311      0              5.8510948      17.668859    
     42100   2.9889881      1.3027456      0              5.7840386      17.653698    
     42200   2.9611281      1.2182681      0              5.6577914      16.782958    
     42300   2.999086       1.1665444      0              5.6629768      16.468018    
     42400   3.0548357      1.3248571      0              5.9048732      17.614596    
     42500   3.0639873      1.2998548      0              5.8935917      17.536702    
     42600   2.9959114      1.269288       0              5.7609608      17.286141    
     42700   2.9625593      1.2692993      0              5.7109683      17.376165    
     42800   2.9195812      1.3937426      0              5.7709761      18.110514    
     42900   3.0678243      1.3639713      0              5.9634607      18.126734    
     43000   3.1108464      1.3212476      0              5.9852387      18.040097    
     43100   3.000628       1.2149405      0              5.7136848      16.937319    
     43200   3.002847       1.1970028      0              5.6990739      16.536309    
     43300   3.0464208      1.1895634      0              5.7569634      16.609979    
     43400   2.9897377      1.337724       0              5.8201408      17.853796    
     43500   3.0585285      1.2672299      0              5.8527825      17.317288    
     43600   2.9767754      1.2345503      0              5.6975331      16.949216    
     43700   2.9274236      1.232794       0              5.6217853      16.995323    
     43800   2.9204884      1.3749379      0              5.7535314      18.090543    
     43900   3.0435878      1.2630126      0              5.8261652      17.347551    
     44000   3.0582519      1.2080148      0              5.7931527      16.895225    
     44100   2.9820826      1.2468528      0              5.7177926      17.15797     
     44200   2.954093       1.245445       0              5.6744208      17.038879    
     44300   2.975644       1.3173165      0              5.778603       17.736096    
     44400   3.0442322      1.3631901      0              5.9273087      18.082229    
     44500   3.0198486      1.2978166      0              5.8253777      17.424298    
     44600   2.9384489      1.3005253      0              5.7060465      17.621206    
     44700   2.9405591      1.3270116      0              5.7356964      17.607586    
     44800   3.0178361      1.3223684      0              5.8469122      17.833478    
     44900   3.1409739      1.3126246      0              6.021785       17.633881    
     45000   3.1190609      1.3059461      0              5.982253       17.692181    
     45100   2.9514442      1.3170201      0              5.7420247      17.530148    
     45200   2.9688527      1.2540272      0              5.7051318      17.010364    
     45300   3.0590644      1.2023607      0              5.7887167      16.721866    
     45400   3.0834352      1.2485438      0              5.8714382      17.026521    
     45500   3.0181672      1.2319103      0              5.7569506      17.190974    
     45600   2.9285446      1.2242067      0              5.6148787      16.762361    
     45700   3.0094338      1.1722         0              5.6841464      16.510189    
     45800   3.0566337      1.1830374      0              5.7657493      16.644728    
     45900   3.0429671      1.2304627      0              5.7926846      17.141829    
     46000   2.9398657      1.3566663      0              5.7643116      17.980588    
     46100   2.9463493      1.2307275      0              5.6480936      17.053544    
     46200   2.8779061      1.2396003      0              5.5543516      16.698252    
     46300   2.9833106      1.259601       0              5.7323819      17.10385     
     46400   3.0835532      1.2189664      0              5.8420377      17.000367    
     46500   3.0248685      1.2552662      0              5.7903535      17.016976    
     46600   3.0311857      1.1378609      0              5.6824194      16.246148    
     46700   2.987437       1.178224       0              5.6571915      16.497567    
     46800   3.0846189      1.2338869      0              5.858556       17.02126     
     46900   3.0841496      1.2962936      0              5.9202591      17.588217    
     47000   2.9846903      1.3149714      0              5.7898207      17.644965    
     47100   2.9837582      1.2599213      0              5.7333732      17.175466    
     47200   2.9966576      1.273494       0              5.7662855      17.190281    
     47300   3.0059924      1.2708548      0              5.7776418      17.189711    
     47400   2.9726389      1.3208175      0              5.7775985      17.685474    
     47500   2.9530645      1.3526941      0              5.7801279      17.805116    
     47600   2.9939548      1.2966201      0              5.7853595      17.461602    
     47700   2.9866169      1.3131572      0              5.7908951      17.692917    
     47800   3.0398595      1.2288742      0              5.7864369      16.865451    
     47900   2.977626       1.2757738      0              5.7400319      17.309002    
     48000   2.9032996      1.3565312      0              5.7093542      17.669762    
     48100   2.9840875      1.3625937      0              5.8365393      18.067481    
     48200   3.0745443      1.3237408      0              5.9333055      17.702171    
     48300   3.0265822      1.2659268      0              5.8035833      17.196145    
     48400   2.9804056      1.2216027      0              5.6900282      16.852978    
     48500   2.9601388      1.2856084      0              5.7236485      17.364612    
     48600   2.983131       1.344792       0              5.8173035      17.972072    
     48700   3.0571791      1.2944394      0              5.8779688      17.571308    
     48800   2.9507147      1.3041177      0              5.7280286      17.394033    
     48900   2.894497       1.2660472      0              5.6056727      17.304237    
     49000   2.9925841      1.2197019      0              5.7063862      16.943661    
     49100   3.0151298      1.2808337      0              5.8013201      17.231141    
     49200   3.0555397      1.241678       0              5.8227497      16.935757    
     49300   3.0119784      1.234083       0              5.7498445      17.028694    
     49400   2.9858069      1.2243083      0              5.7008317      16.848999    
     49500   3.0207386      1.3371238      0              5.8660193      17.865731    
     49600   3.0759121      1.368448       0              5.9800633      18.242043    
     49700   2.9980943      1.3322685      0              5.8272142      17.756311    
     49800   2.9123052      1.3534845      0              5.7198093      17.679293    
     49900   2.9680837      1.2802556      0              5.7302072      17.500034    
     50000   3.0118131      1.3152832      0              5.830797       17.739797    
Loop time of 10.3947 on 1 procs for 50000 steps with 2048 atoms

Performance: 831196.719 tau/day, 4810.166 timesteps/s, 9.851 Matom-step/s
99.7% CPU use with 1 MPI tasks x 1 OpenMP threads

MPI task timing breakdown:
Section |  min time  |  avg time  |  max time  |%varavg| %total
---------------------------------------------------------------
Pair    | 4.0816     | 4.0816     | 4.0816     |   0.0 | 39.27
Neigh   | 4.2337     | 4.2337     | 4.2337     |   0.0 | 40.73
Comm    | 0.48575    | 0.48575    | 0.48575    |   0.0 |  4.67
Output  | 0.0067549  | 0.0067549  | 0.0067549  |   0.0 |  0.06
Modify  | 1.2705     | 1.2705     | 1.2705     |   0.0 | 12.22
Other   |            | 0.3163     |            |       |  3.04

Nlocal:           2048 ave        2048 max        2048 min
Histogram: 1 0 0 0 0 0 0 0 0 0
Nghost:           1494 ave        1494 max        1494 min
Histogram: 1 0 0 0 0 0 0 0 0 0
Neighs:           8615 ave        8615 max        8615 min
Histogram: 1 0 0 0 0 0 0 0 0 0

Total # of neighbors = 8615
Ave neighs/atom = 4.206543
Neighbor list builds = 4689
Dangerous builds = 0

unfix 1
dump           1 all atom ${run_steps} 3dWCA_T${final_temperature}_d${density}_N${run_steps}.lammpstrj
dump           1 all atom 100000 3dWCA_T${final_temperature}_d${density}_N${run_steps}.lammpstrj
dump           1 all atom 100000 3dWCA_T0.1_d${density}_N${run_steps}.lammpstrj
dump           1 all atom 100000 3dWCA_T0.1_d0.9_N${run_steps}.lammpstrj
dump           1 all atom 100000 3dWCA_T0.1_d0.9_N100000.lammpstrj
dump           2 all dcd ${thermo_time} 3dWCA_T${final_temperature}_d${density}_N${run_steps}.dcd
dump           2 all dcd 100 3dWCA_T${final_temperature}_d${density}_N${run_steps}.dcd
dump           2 all dcd 100 3dWCA_T0.1_d${density}_N${run_steps}.dcd
dump           2 all dcd 100 3dWCA_T0.1_d0.9_N${run_steps}.dcd
dump           2 all dcd 100 3dWCA_T0.1_d0.9_N100000.dcd
fix 1 all nvt temp ${initial_temperature} ${final_temperature} ${tau}
fix 1 all nvt temp 3 ${final_temperature} ${tau}
fix 1 all nvt temp 3 0.1 ${tau}
fix 1 all nvt temp 3 0.1 0.2

run ${run_steps}
run 100000
Generated 0 of 0 mixed pair_coeff terms from geometric mixing rule
Per MPI rank memory allocation (min/avg/max) = 3.318 | 3.318 | 3.318 Mbytes
   Step          Temp          E_pair         E_mol          TotEng         Press     
     50000   3.0118131      1.3152832      0              5.830797       17.739797    
     50100   3.0017032      1.2864806      0              5.7868369      17.314602    
     50200   2.9381144      1.1923075      0              5.5973271      16.586983    
     50300   2.9350081      1.1909326      0              5.5912951      16.570377    
     50400   2.9524779      1.2625622      0              5.6891165      17.169016    
     50500   2.9688432      1.3042685      0              5.7553588      17.412534    
     50600   2.9914753      1.3099699      0              5.7949917      17.682017    
     50700   2.9964964      1.28474        0              5.7772899      17.316771    
     50800   2.8975919      1.2654137      0              5.6096793      17.117773    
     50900   2.9049174      1.2033931      0              5.5586416      16.720181    
     51000   3.0222367      1.1847122      0              5.7158536      16.518763    
     51100   3.0210091      1.2725063      0              5.8018073      17.313155    
     51200   3.0051199      1.2343477      0              5.7398266      16.98375     
     51300   2.9601413      1.2036333      0              5.6416772      16.800834    
     51400   2.9751256      1.1965287      0              5.657038       16.680289    
     51500   3.0364824      1.2047339      0              5.7572336      16.80166     
     51600   3.1068419      1.237839       0              5.8958264      17.031519    
     51700   2.973269       1.2820125      0              5.7397384      17.620787    
     51800   2.898877       1.2846952      0              5.6308875      17.075828    
     51900   2.9286985      1.2446453      0              5.635548       17.034726    
     52000   2.9348417      1.3272369      0              5.7273498      17.69363     
     52100   3.0231946      1.2959738      0              5.8285514      17.473835    
     52200   2.9449986      1.2725885      0              5.6879295      17.205633    
     52300   2.84599        1.2728588      0              5.5397593      16.992283    
     52400   2.9089201      1.2368645      0              5.5981141      17.143374    
     52500   2.9420848      1.2830847      0              5.6940571      17.399368    
     52600   2.9607532      1.2278451      0              5.6668063      16.893023    
     52700   2.8220536      1.234928       0              5.4659415      16.869751    
     52800   2.8379984      1.2430222      0              5.4979412      16.998451    
     52900   2.9526828      1.1865931      0              5.6134546      16.455081    
     53000   2.9453264      1.2165818      0              5.6324142      16.869963    
     53100   2.9219204      1.2408155      0              5.6215561      16.986179    
     53200   2.8674659      1.2097479      0              5.5088466      16.615476    
     53300   2.8270826      1.1248206      0              5.3633738      15.74617     
     53400   2.8138058      1.2638544      0              5.4825021      17.237916    
     53500   2.9417547      1.2136157      0              5.6240931      16.76214     
     53600   2.9066373      1.2445979      0              5.6024249      16.905784    
     53700   2.8602395      1.2225958      0              5.5108601      16.801448    
     53800   2.7945838      1.2746805      0              5.4645094      16.987624    
     53900   2.9079123      1.2521332      0              5.6118719      16.973935    
     54000   2.9158701      1.339995       0              5.7116645      17.641181    
     54100   2.8725364      1.2911125      0              5.5978132      17.379144    
     54200   2.848907       1.2370924      0              5.5083662      16.918064    
     54300   2.8220951      1.2849104      0              5.5159861      17.184106    
     54400   2.9094162      1.2247625      0              5.5867559      16.781576    
     54500   2.952202       1.2860724      0              5.7122131      17.228695    
     54600   2.9129698      1.2729227      0              5.6402439      17.318524    
     54700   2.8504845      1.1919777      0              5.4656167      16.449877    
     54800   2.8267614      1.2175347      0              5.4556064      16.556105    
     54900   2.8789518      1.2022115      0              5.5185306      16.540774    
     55000   2.8754869      1.3097905      0              5.6209148      17.577046    
     55100   2.9681943      1.2016047      0              5.6517222      16.54311     
     55200   2.8160527      1.2135563      0              5.4355728      16.665111    
     55300   2.8084952      1.1759007      0              5.3865865      16.247611    
     55400   2.8145918      1.2383009      0              5.4581271      16.788331    
     55500   2.8619597      1.2583937      0              5.5492372      16.9307      
     55600   2.8305078      1.1914925      0              5.435181       16.47084     
     55700   2.7715468      1.129632       0              5.2849222      15.92798     
     55800   2.8527927      1.1095848      0              5.3866843      15.801375    
     55900   2.8514275      1.2057804      0              5.4808332      16.766343    
     56000   2.8626928      1.2011598      0              5.4931023      16.59133     
     56100   2.8169349      1.1965409      0              5.41988        16.653193    
     56200   2.6920961      1.1797699      0              5.2159423      16.254725    
     56300   2.7659859      1.1388012      0              5.2857542      15.996873    
     56400   2.812452       1.1848984      0              5.4015166      16.338398    
     56500   2.8292733      1.1803633      0              5.422201       16.353362    
     56600   2.8063903      1.1943031      0              5.4018331      16.505355    
     56700   2.8308286      1.1446009      0              5.3887704      16.116746    
     56800   2.7755545      1.2000614      0              5.3613602      16.489495    
     56900   2.8114777      1.1392283      0              5.3543856      16.040203    
     57000   2.7893456      1.2088956      0              5.3908711      16.566296    
     57100   2.8351138      1.2031109      0              5.4537051      16.611643    
     57200   2.8518924      1.1965567      0              5.4723065      16.56729     
     57300   2.7421373      1.1926649      0              5.3038624      16.577447    
     57400   2.7631826      1.105801       0              5.2485511      15.723869    
     57500   2.792958       1.13447        0              5.3218614      15.943009    
     57600   2.8207799      1.2026414      0              5.4317452      16.670079    
     57700   2.7967766      1.2223138      0              5.4154303      16.721421    
     57800   2.6774246      1.1369388      0              5.1511147      16.047215    
     57900   2.6923667      1.1415541      0              5.1781322      15.969881    
     58000   2.7927741      1.1585187      0              5.3456343      16.271954    
     58100   2.8135007      1.1702507      0              5.3884411      16.185066    
     58200   2.7539966      1.174773       0              5.3037509      16.403681    
     58300   2.6861011      1.1770579      0              5.2042422      16.219033    
     58400   2.7234718      1.0971358      0              5.1803488      15.584118    
     58500   2.7645397      1.2230846      0              5.3678694      16.696116    
     58600   2.8278397      1.1533031      0              5.3929914      16.056036    
     58700   2.7365455      1.1448905      0              5.2477045      15.992986    
     58800   2.6794749      1.2063396      0              5.2235895      16.344714    
     58900   2.7769263      1.1086177      0              5.2719733      15.689179    
     59000   2.7084786      1.1861074      0              5.2468415      16.377373    
     59100   2.65827        1.1102394      0              5.0956975      15.75684     
     59200   2.6791734      1.0846156      0              5.1014134      15.511424    
     59300   2.749579       1.1471981      0              5.2695527      16.038838    
     59400   2.7459532      1.1950014      0              5.31192        16.576163    
     59500   2.7452315      1.1664841      0              5.2823206      16.213296    
     59600   2.678344       1.1068017      0              5.122356       15.759576    
     59700   2.6326851      1.1178951      0              5.0649946      15.625232    
     59800   2.6741973      1.1484033      0              5.1577406      16.018346    
     59900   2.731522       1.1226396      0              5.217922       15.668811    
     60000   2.7171368      1.1656612      0              5.2393764      16.243636    
     60100   2.7212982      1.1498883      0              5.2298425      15.91092     
     60200   2.6677202      1.1187539      0              5.1183803      15.726058    
     60300   2.6521073      1.051416       0              5.0276346      15.047405    
     60400   2.65891        1.1420755      0              5.128493       15.964096    
     60500   2.7390027      1.1622487      0              5.2687467      16.173008    
     60600   2.732284       1.1283231      0              5.224748       15.805617    
     60700   2.6552484      1.1474548      0              5.1283826      15.952356    
     60800   2.666784       1.0849508      0              5.0831736      15.376947    
     60900   2.6804043      1.1738763      0              5.1925195      16.143691    
     61000   2.7247037      1.245224       0              5.3302839      16.753279    
     61100   2.6846611      1.1980142      0              5.2230395      16.522687    
     61200   2.6730988      1.10011        0              5.1078004      15.615423    
     61300   2.6698502      1.0802105      0              5.0830304      15.382377    
     61400   2.6529857      1.1368996      0              5.114435       15.912531    
     61500   2.716672       1.1766011      0              5.2496193      16.26831     
     61600   2.761065       1.2104808      0              5.350056       16.483484    
     61700   2.673528       1.1581251      0              5.1664589      16.25125     
     61800   2.6625169      1.0901417      0              5.0819669      15.440255    
     61900   2.6548322      1.0595405      0              5.0398444      15.201142    
     62000   2.6898643      1.0156236      0              5.0484499      14.990075    
     62100   2.7188626      1.103183       0              5.1794854      15.592924    
     62200   2.73801        1.1101947      0              5.2152044      15.726285    
     62300   2.6204809      1.08277        0              5.0115721      15.355848    
     62400   2.5853007      1.0921285      0              4.9681861      15.420109    
     62500   2.62325        1.1128385      0              5.0457922      15.707906    
     62600   2.6979683      1.0989383      0              5.1439148      15.727852    
     62700   2.6658451      1.1193689      0              5.116184       15.728444    
     62800   2.5321433      1.1164899      0              4.9128502      15.707996    
     62900   2.5462052      1.1031063      0              4.9205492      15.51242     
     63000   2.6628836      1.0372688      0              5.0296438      14.933557    
     63100   2.6259759      1.1227149      0              5.0597553      15.683786    
     63200   2.6188171      1.0620092      0              4.9883168      15.063566    
     63300   2.5435119      1.0670544      0              4.8804593      15.134096    
     63400   2.5533922      1.0252928      0              4.8535109      14.850909    
     63500   2.632295       1.0787941      0              5.0253087      15.343427    
     63600   2.6532393      1.1202455      0              5.0981611      15.765586    
     63700   2.6334791      1.0724171      0              5.0207069      15.457118    
     63800   2.5644806      1.0588951      0              4.9037377      15.206142    
     63900   2.5817424      1.0274432      0              4.898166       14.81268     
     64000   2.6712407      1.028648       0              5.0335525      14.984423    
     64100   2.7185222      1.1228926      0              5.1986848      15.810479    
     64200   2.6696276      1.0810389      0              5.083525       15.617219    
     64300   2.5871516      1.1090316      0              4.9878641      15.456562    
     64400   2.5356053      1.0787645      0              4.8803154      15.320078    
     64500   2.5185075      1.0770336      0              4.8529502      15.268112    
     64600   2.579395       1.1035297      0              4.970733       15.498718    
     64700   2.6376777      1.122502       0              5.0770866      15.765591    
     64800   2.6166706      1.061474       0              4.9845634      15.222126    
     64900   2.558368       1.089934       0              4.9256123      15.416771    
     65000   2.5675592      1.0446535      0              4.8941117      15.050656    
     65100   2.5314585      1.0769431      0              4.8722768      15.293924    
     65200   2.5537082      1.0801114      0              4.9088033      15.315228    
     65300   2.5973298      1.1031146      0              4.997207       15.451599    
     65400   2.5800485      1.0993923      0              4.9675754      15.42515     
     65500   2.5075576      1.075364       0              4.8348638      15.348442    
     65600   2.5266123      1.0137953      0              4.8018632      14.877836    
     65700   2.5532727      1.0833137      0              4.9113526      15.210538    
     65800   2.653131       1.0918787      0              5.069632       15.528089    
     65900   2.5872851      1.0884871      0              4.9675198      15.451163    
     66000   2.5261856      1.0725711      0              4.8599992      15.356262    
     66100   2.4997128      1.0591305      0              4.8068689      14.911903    
     66200   2.5223569      1.0266213      0              4.8083092      14.725572    
     66300   2.5329908      1.1068572      0              4.9044882      15.633368    
     66400   2.6173968      1.0795912      0              5.0037693      15.190732    
     66500   2.5463336      1.0541155      0              4.8717509      15.096577    
     66600   2.5402082      0.9762565      0              4.7847082      14.420523    
     66700   2.4941058      1.0559469      0              4.795279       14.939017    
     66800   2.5071029      1.0871174      0              4.8459355      15.3449      
     66900   2.5890717      0.99840557     0              4.8801168      14.543867    
     67000   2.4333184      1.1191555      0              4.7673508      15.494985    
     67100   2.4726091      0.97859598     0              4.6856986      14.406095    
     67200   2.4600594      1.0762492      0              4.7645364      15.137844    
     67300   2.5471219      1.0683011      0              4.8871185      15.211662    
     67400   2.5553166      1.0195982      0              4.8507016      14.805061    
     67500   2.4919268      1.0422465      0              4.7783116      14.781952    
     67600   2.4587945      1.0680879      0              4.7544787      15.308365    
     67700   2.5319107      0.97174095     0              4.7677525      14.374942    
     67800   2.4551162      1.1035028      0              4.7843789      15.375884    
     67900   2.5239048      1.0821457      0              4.8661544      15.330892    
     68000   2.4791971      1.0908783      0              4.8078582      15.329248    
     68100   2.482366       0.96301293     0              4.6847439      14.154956    
     68200   2.4425495      1.0056         0              4.6676352      14.679922    
     68300   2.4714108      1.0680138      0              4.7733198      14.99585     
     68400   2.5519147      1.0366348      0              4.8626378      14.938632    
     68500   2.4719721      0.99775092     0              4.7038986      14.370605    
     68600   2.3613931      1.0566407      0              4.5970009      14.895575    
     68700   2.480148       0.96744404     0              4.6858495      14.179073    
     68800   2.4881239      1.0373388      0              4.7677023      14.979053    
     68900   2.4476046      1.0798228      0              4.749437       14.984296    
     69000   2.4480181      0.93456774     0              4.6048018      13.879573    
     69100   2.3703009      0.99309905     0              4.5468144      14.441193    
     69200   2.4124253      1.0232271      0              4.6400982      14.61521     
     69300   2.4094059      1.0766495      0              4.6889937      15.146619    
     69400   2.4723645      1.0042672      0              4.7110032      14.487232    
     69500   2.4279461      1.0316354      0              4.6717763      14.805057    
     69600   2.3263705      1.0412147      0              4.5290666      14.877489    
     69700   2.4041449      0.95750143     0              4.5619579      14.199907    
     69800   2.4492084      1.0229753      0              4.694994       14.730215    
     69900   2.4606662      1.0105576      0              4.6997546      14.548299    
     70000   2.3967548      1.041022       0              4.6343988      14.954055    
     70100   2.3957884      0.99273603     0              4.5846638      14.298164    
     70200   2.3601646      0.98035559     0              4.5188739      14.405741    
     70300   2.3300233      0.9719062      0              4.4652347      14.238173    
     70400   2.4085058      0.99044249     0              4.6014371      14.41106     
     70500   2.4577749      1.0017452      0              4.6866074      14.532327    
     70600   2.4688197      0.94290092     0              4.6443223      13.90334     
     70700   2.3583906      0.98341746     0              4.519276       14.427452    
     70800   2.3847104      0.92769729     0              4.5030163      13.78506     
     70900   2.4136812      0.93288138     0              4.5516353      13.991863    
     71000   2.4076816      0.95829044     0              4.5680493      14.049317    
     71100   2.4336484      0.93917848     0              4.5878686      14.134758    
     71200   2.3863535      1.0266569      0              4.6044393      14.752894    
     71300   2.3641804      0.99734751     0              4.5418866      14.381077    
     71400   2.3305295      0.92197189     0              4.4160591      13.780515    
     71500   2.3715217      0.93132782     0              4.4868734      13.912793    
     71600   2.401928       0.99421891     0              4.5953517      14.340325    
     71700   2.401404       0.95935518     0              4.5597023      14.118769    
     71800   2.369695       0.95032651     0              4.5031334      14.073103    
     71900   2.3253344      0.97345775     0              4.4597562      14.162228    
     72000   2.3247074      0.92933651     0              4.4146949      13.779929    
     72100   2.3168262      0.99401104     0              4.4675534      14.262737    
     72200   2.408844       0.96577446     0              4.5772761      14.069607    
     72300   2.3839664      0.98214702     0              4.5563505      14.319133    
     72400   2.3454375      0.90977518     0              4.4262135      13.641598    
     72500   2.3153432      0.91681886     0              4.3881379      13.755853    
     72600   2.3183134      0.98016969     0              4.4559418      14.385417    
     72700   2.3490385      0.96045661     0              4.4822939      14.048056    
     72800   2.3437687      0.96321208     0              4.4771485      14.067537    
     72900   2.3625738      0.92697333     0              4.4691036      13.829512    
     73000   2.2554544      1.0398475      0              4.4213772      14.698522    
     73100   2.2940397      0.95805724     0              4.3974366      13.966368    
     73200   2.3669256      0.92715347     0              4.4758083      13.899081    
     73300   2.3513523      1.0235502      0              4.5488565      14.600433    
     73400   2.3229319      0.99146728     0              4.4741638      14.421462    
     73500   2.2394296      0.9797966      0              4.3373008      14.287375    
     73600   2.3192062      0.89134422     0              4.3684549      13.569456    
     73700   2.3069809      0.97630178     0              4.4350834      14.097399    
     73800   2.3139221      0.99709372     0              4.4662821      14.415739    
     73900   2.2814061      0.97328223     0              4.3937204      13.991786    
     74000   2.2327115      0.87757637     0              4.2250083      13.245482    
     74100   2.2736666      0.91571548     0              4.3245501      13.748432    
     74200   2.3080366      0.96746549     0              4.4278299      13.908979    
     74300   2.3214715      0.96553122     0              4.4460382      14.114498    
     74400   2.2915828      0.91679744     0              4.3524933      13.641288    
     74500   2.2287479      0.94194392     0              4.2834334      13.761424    
     74600   2.2798679      0.99672234     0              4.4148544      14.399612    
     74700   2.3605687      0.96625686     0              4.5053809      14.274118    
     74800   2.3216638      0.91157065     0              4.3923659      13.616533    
     74900   2.3034539      0.8545967      0              4.3080904      13.201726    
     75000   2.2615329      0.93110792     0              4.3217509      13.780617    
     75100   2.3244211      0.93199154     0              4.4169207      13.704952    
     75200   2.2905249      1.0377157      0              4.4718254      14.726437    
     75300   2.285142       0.93467281     0              4.3607121      13.843131    
     75400   2.2117988      0.94289025     0              4.2589685      14.018559    
     75500   2.2244343      0.96367131     0              4.2986936      13.937252    
     75600   2.2956156      0.93137602     0              4.373118       13.688887    
     75700   2.2639039      0.94320433     0              4.3374021      13.965448    
     75800   2.2217084      0.85368746     0              4.1846228      12.973219    
     75900   2.2264548      0.85257074     0              4.1906222      12.937761    
     76000   2.2400512      0.94835899     0              4.3067951      13.894382    
     76100   2.2936599      0.89093471     0              4.3297446      13.326263    
     76200   2.2384003      0.92783061     0              4.2837916      13.61649     
     76300   2.2632187      0.84789366     0              4.241064       12.861318    
     76400   2.2076997      0.901642       0              4.2115746      13.298717    
     76500   2.2130751      0.91448574     0              4.2324775      13.542193    
     76600   2.240742       0.96051762     0              4.3199895      14.01209     
     76700   2.2395327      0.9628284      0              4.3204872      14.209202    
     76800   2.1855222      0.93842496     0              4.2151075      13.711091    
     76900   2.173444       0.87692876     0              4.1355028      13.085563    
     77000   2.1734275      0.92929349     0              4.1878429      13.669824    
     77100   2.2988254      0.90459775     0              4.3511521      13.63143     
     77200   2.2719471      0.8788143      0              4.2850709      13.380516    
     77300   2.1595006      0.94806962     0              4.1857389      13.858698    
     77400   2.1769418      0.9150831      0              4.1789014      13.700663    
     77500   2.2017895      0.95583469     0              4.2569063      13.918335    
     77600   2.3088128      0.91941455     0              4.3809428      13.83073     
     77700   2.233045       0.92986047     0              4.2777924      13.704599    
     77800   2.1687232      0.90525237     0              4.1567488      13.499489    
     77900   2.191434       0.879181       0              4.1647269      13.289857    
     78000   2.2093101      0.90714623     0              4.2194932      13.479161    
     78100   2.2244284      0.88423408     0              4.2192474      13.352486    
     78200   2.1510336      0.87824203     0              4.103217       13.151361    
     78300   2.1246877      0.89383912     0              4.0793145      13.233956    
     78400   2.2126174      0.89299124     0              4.2102967      13.51738     
     78500   2.1838679      0.98649709     0              4.2606994      14.085223    
     78600   2.1871799      0.91748036     0              4.1966483      13.564592    
     78700   2.1681431      0.86834035     0              4.118967       13.086093    
     78800   2.1272905      0.89693535     0              4.086313       13.417952    
     78900   2.1931063      0.85622452     0              4.1442777      12.987278    
     79000   2.208766       0.94401174     0              4.255543       13.816856    
     79100   2.172627       0.91858526     0              4.1759345      13.407475    
     79200   2.1550046      0.84328703     0              4.0742156      12.884121    
     79300   2.1582724      0.85565926     0              4.0914871      13.017219    
     79400   2.1287862      0.93747732     0              4.1290975      13.714183    
     79500   2.1905129      0.88361026     0              4.1677753      13.113279    
     79600   2.1443536      0.92638535     0              4.1413452      13.6229      
     79700   2.1173173      0.84592127     0              4.0203465      13.01488     
     79800   2.0607448      0.90151686     0              3.9911247      13.29209     
     79900   2.1452629      0.87087796     0              4.0872011      13.130832    
     80000   2.1444834      0.93643528     0              4.1515896      13.689714    
     80100   2.1502623      0.89269856     0              4.1165172      13.250551    
     80200   2.1172223      0.90091647     0              4.0751992      13.315554    
     80300   2.1539356      0.80511894     0              4.0344447      12.37442     
     80400   2.0874118      0.861896       0              3.9914849      13.067346    
     80500   2.0987147      0.85424555     0              4.0007804      12.872915    
     80600   2.1619415      0.87887858     0              4.1202074      13.285137    
     80700   2.1743706      0.86940117     0              4.1293645      12.998838    
     80800   2.1076517      0.84212142     0              4.0020553      12.8365      
     80900   2.0913334      0.84010342     0              3.9755718      12.918731    
     81000   2.1157684      0.827918       0              4.000021       12.585334    
     81100   2.1363064      0.85236349     0              4.0552584      12.920592    
     81200   2.1676485      0.88879298     0              4.138678       13.420045    
     81300   2.1335753      0.89190335     0              4.0907036      13.326179    
     81400   2.1089633      0.79699908     0              3.9588993      12.472985    
     81500   2.0709575      0.82976499     0              3.9346844      12.755764    
     81600   2.0818975      0.86314053     0              3.9844619      13.089686    
     81700   2.1047465      0.91829607     0              4.0738743      13.387212    
     81800   2.1210375      0.93269721     0              4.1127         13.673046    
     81900   2.0456058      0.86889584     0              3.9358063      12.996977    
     82000   2.0362292      0.84088099     0              3.8937334      12.636651    
     82100   2.1018165      0.79292018     0              3.9441056      12.316872    
     82200   2.0697069      0.90106659     0              4.004111       13.375398    
     82300   2.0882633      0.85443106     0              3.9852965      12.925971    
     82400   2.0139926      0.81918907     0              3.8387029      12.381463    
     82500   1.9893783      0.84515866     0              3.827769       12.640337    
     82600   2.063083       0.82070229     0              3.9138158      12.544844    
     82700   2.1099926      0.7807755      0              3.9442189      12.257324    
     82800   2.029133       0.88744572     0              3.9296591      13.310854    
     82900   2.0452016      0.85020555     0              3.9165099      12.830629    
     83000   1.9670484      0.83076042     0              3.7798923      12.555268    
     83100   1.9869982      0.76621847     0              3.7452605      12.110811    
     83200   2.0313341      0.81572957     0              3.8612429      12.525522    
     83300   2.0395247      0.86112631     0              3.9189195      12.96865     
     83400   2.0571891      0.81112367     0              3.8954006      12.567952    
     83500   2.0138003      0.79702055     0              3.816246       12.254899    
     83600   1.9453033      0.79729812     0              3.7138284      12.289434    
     83700   2.0061012      0.806723       0              3.8144055      12.451597    
     83800   2.0282105      0.87392012     0              3.9147503      13.014       
     83900   2.0303226      0.82577191     0              3.8697688      12.532187    
     84000   1.9881914      0.80908108     0              3.789912       12.435876    
     84100   2.0238229      0.750927       0              3.7851791      11.928276    
     84200   2.0690243      0.79277        0              3.8947911      12.407334    
     84300   2.050882       0.86886605     0              3.9436869      13.082009    
     84400   2.0543649      0.77036474     0              3.8504074      12.134524    
     84500   1.9853142      0.82494763     0              3.8014649      12.553806    
     84600   1.9641635      0.85422594     0              3.7990325      12.623574    
     84700   2.0227709      0.80034464     0              3.8330195      12.386461    
     84800   2.0029066      0.8317809      0              3.8346739      12.704977    
     84900   1.9557059      0.81198533     0              3.7441118      12.353077    
     85000   1.9520918      0.76862388     0              3.6953319      12.025679    
     85100   1.9679319      0.82000239     0              3.7704589      12.548793    
     85200   2.0135628      0.84515719     0              3.8640266      12.699061    
     85300   2.0088723      0.80220818     0              3.8140453      12.367639    
     85400   2.0151208      0.75221014     0              3.7734154      11.952287    
     85500   1.9784354      0.78381565     0              3.7500198      12.18012     
     85600   1.9768255      0.75324259     0              3.717033       11.907905    
     85700   1.9352322      0.77422716     0              3.675658       11.830948    
     85800   1.9389824      0.77023        0              3.6772835      12.103306    
     85900   2.0032598      0.77463775     0              3.7780603      11.978741    
     86000   2.0197332      0.76804371     0              3.7961641      12.020546    
     86100   1.9052865      0.82369764     0              3.6802319      12.39856     
     86200   1.9012255      0.77691515     0              3.627361       12.016477    
     86300   1.9474084      0.76130934     0              3.6809956      11.841401    
     86400   1.9473923      0.81027544     0              3.7299376      12.449335    
     86500   1.9611171      0.78193893     0              3.7221782      12.160644    
[...]
    128500   0.73091488     0.24177345     0              1.3376104      5.1914969    
    128600   0.72146286     0.23100192     0              1.3126678      5.1545501    
    128700   0.70805794     0.22408142     0              1.2856497      5.010576     
    128800   0.6922518      0.24069561     0              1.2785663      5.258139     
    128900   0.73144842     0.23495574     0              1.3315926      5.2259373    
    129000   0.73437429     0.22489524     0              1.3259188      5.0465128    
    129100   0.69957387     0.24235974     0              1.2912082      5.2555215    
    129200   0.69442527     0.23724862     0              1.2783779      5.1523159    
    129300   0.70183049     0.22667777     0              1.2789095      5.0199493    
    129400   0.70182902     0.22704681     0              1.2792763      5.0725422    
    129500   0.69015602     0.22444008     0              1.2591686      4.9530821    
    129600   0.67176236     0.231842       0              1.2389935      5.0208884    
    129700   0.68132576     0.22986139     0              1.251351       5.0028823    
    129800   0.70523318     0.22185097     0              1.2791842      4.959095     
    129900   0.69373155     0.22612583     0              1.266215       5.0359699    
    130000   0.66210883     0.22377847     0              1.2164568      4.9570403    
    130100   0.67502105     0.20689712     0              1.2189343      4.703024     
    130200   0.6794805      0.21511359     0              1.2338367      4.8452975    
    130300   0.69265976     0.20932963     0              1.2478119      4.738721     
    130400   0.65776037     0.2445824      0              1.2307412      5.236257     
    130500   0.65589926     0.20776187     0              1.1911304      4.7469107    
    130600   0.65329515     0.20267873     0              1.182143       4.6199655    
    130700   0.66023938     0.21807124     0              1.2079467      4.8838731    
    130800   0.6677959      0.22867997     0              1.2298847      5.0409753    
    130900   0.65779389     0.21747541     0              1.2036845      4.89718      
    131000   0.65318495     0.20656411     0              1.1858631      4.692892     
    131100   0.64203497     0.22175645     0              1.1843387      4.9620711    
    131200   0.65479396     0.20189982     0              1.1836112      4.6536443    
    131300   0.63736725     0.20147651     0              1.1570606      4.7326121    
    131400   0.6278282      0.20122671     0              1.1425092      4.702123     
    131500   0.64224814     0.20157002     0              1.1644718      4.6112355    
    131600   0.65838706     0.21038583     0              1.1974842      4.7860053    
    131700   0.64150863     0.20208032     0              1.1638734      4.6904486    
    131800   0.62382946     0.20430059     0              1.1395879      4.5610381    
    131900   0.62426525     0.1910219      0              1.1269625      4.5275237    
    132000   0.62133341     0.18992832     0              1.1214734      4.4268718    
    132100   0.61794393     0.19796611     0              1.1244294      4.5193042    
    132200   0.61871588     0.19638228     0              1.1240029      4.5172357    
    132300   0.61177717     0.19784957     0              1.1150672      4.6232191    
    132400   0.60441101     0.19499987     0              1.1011737      4.4457462    
    132500   0.59293554     0.20135693     0              1.090326       4.5885777    
    132600   0.61639034     0.18869901     0              1.1128331      4.4343208    
    132700   0.62576818     0.18341378     0              1.1216077      4.4051264    
    132800   0.59339695     0.18712688     0              1.0767877      4.4275548    
    132900   0.5922465      0.17874977     0              1.0666857      4.3179274    
    133000   0.59233779     0.18521943     0              1.0732923      4.3494551    
    133100   0.59125573     0.19950232     0              1.0859529      4.5588204    
    133200   0.59808976     0.19873447     0              1.0954311      4.5519447    
    133300   0.58180615     0.1849889      0              1.057272       4.2917647    
    133400   0.57508693     0.17347606     0              1.0356853      4.1409289    
    133500   0.57614544     0.17616723     0              1.0399634      4.243526     
    133600   0.59333454     0.16812907     0              1.0576963      4.0905163    
    133700   0.57959576     0.18873465     0              1.0577038      4.3934552    
    133800   0.55946769     0.17653347     0              1.0153252      4.134838     
    133900   0.56938403     0.16025818     0              1.0139172      3.9665441    
    134000   0.56599004     0.18119488     0              1.0297654      4.2570194    
    134100   0.57523441     0.17757237     0              1.0400027      4.2861724    
    134200   0.54922494     0.17926508     0              1.0027002      4.2264722    
    134300   0.55027413     0.16265348     0              0.98766164     3.9911162    
    134400   0.55269408     0.16940883     0              0.99804515     4.1135074    
    134500   0.5592651      0.17120354     0              1.0096916      4.1408821    
    134600   0.55999935     0.17129944     0              1.0108883      4.17931      
    134700   0.54065841     0.16507925     0              0.97567087     4.0243341    
    134800   0.53684951     0.15759892     0              0.96247999     3.9051636    
    134900   0.54144013     0.16027345     0              0.97203709     3.9138666    
    135000   0.55519029     0.15722225     0              0.98960105     4.0019079    
    135100   0.54208076     0.16901157     0              0.98173568     4.1340268    
    135200   0.52331413     0.15879547     0              0.94338338     3.9143488    
    135300   0.52229991     0.15334931     0              0.93641663     3.7484738    
    135400   0.52388025     0.16353865     0              0.94897532     3.9949414    
    135500   0.53294026     0.16648005     0              0.9655001      3.9851845    
    135600   0.52375463     0.16474141     0              0.94998974     4.0436198    
    135700   0.51018633     0.15037555     0              0.91528138     3.7801002    
    135800   0.51171749     0.14703741     0              0.91423886     3.7143822    
    135900   0.51576863     0.14554774     0              0.91882292     3.71401      
    136000   0.51076197     0.15110718     0              0.91687604     3.7782188    
    136100   0.49949905     0.14303391     0              0.89191664     3.6602834    
    136200   0.48752466     0.14552016     0              0.87645008     3.7302659    
    136300   0.49682019     0.15308679     0              0.89795319     3.8074202    
    136400   0.51415177     0.14044309     0              0.91129417     3.6391797    
    136500   0.49702422     0.15251281     0              0.89768512     3.7791811    
    136600   0.49296505     0.14621134     0              0.88529786     3.6853049    
    136700   0.48662613     0.1426127      0              0.87219548     3.6783882    
    136800   0.48197269     0.1330973      0              0.85570332     3.4500086    
    136900   0.46173785     0.1426497      0              0.83491828     3.6664012    
    137000   0.46567821     0.13898012     0              0.83715637     3.5924837    
    137100   0.4870363      0.13815517     0              0.86835291     3.6392741    
    137200   0.47861085     0.14739879     0              0.86496452     3.6954468    
    137300   0.46887248     0.13529976     0              0.83826506     3.5078968    
    137400   0.46305577     0.13588325     0              0.83012776     3.4215443    
    137500   0.46851225     0.13144807     0              0.83387331     3.4637824    
    137600   0.46577674     0.13131988     0              0.82964384     3.415778     
    137700   0.44282792     0.13040735     0              0.7943249      3.4022513    
    137800   0.44489505     0.12820761     0              0.79522434     3.3754361    
    137900   0.45325894     0.13411014     0              0.81366657     3.494586     
    138000   0.45774038     0.12944063     0              0.81571594     3.4140391    
    138100   0.43833083     0.14137607     0              0.79855127     3.5583517    
    138200   0.44660224     0.12297668     0              0.79255294     3.3468298    
    138300   0.43661904     0.13353348     0              0.78814224     3.4334099    
    138400   0.43280908     0.12952454     0              0.77842116     3.3248352    
    138500   0.43198091     0.11873176     0              0.76638674     3.2005759    
    138600   0.41139953     0.12569986     0              0.74249784     3.3458864    
    138700   0.4235556      0.11909745     0              0.75412063     3.1669041    
    138800   0.43576536     0.12048698     0              0.77381585     3.2277209    
    138900   0.42784971     0.12302869     0              0.76448989     3.2298107    
    139000   0.4271428      0.11029125     0              0.7506926      3.0662645    
    139100   0.41393576     0.12166024     0              0.7422607      3.2131726    
    139200   0.41444804     0.11490386     0              0.73627237     3.1395252    
    139300   0.39623949     0.12925731     0              0.72332632     3.3535132    
    139400   0.39779747     0.10795315     0              0.704358       2.996546     
    139500   0.39797887     0.10804612     0              0.70472294     3.0288147    
    139600   0.40316969     0.1265338      0              0.73099304     3.3207188    
    139700   0.40917499     0.11649651     0              0.7299593      3.1047034    
    139800   0.40181274     0.10863068     0              0.7110555      2.9754366    
    139900   0.39305009     0.11010447     0              0.69939173     3.0355254    
    140000   0.38775796     0.11209488     0              0.69344782     3.0712987    
    140100   0.38335577     0.11138632     0              0.68613919     3.037726     
    140200   0.38203918     0.099884875    0              0.67266384     2.8525104    
    140300   0.36839075     0.10924928     0              0.66156559     3.0246752    
    140400   0.38151132     0.098696783    0              0.67068433     2.8468604    
    140500   0.38231102     0.1150379      0              0.68822442     3.1137209    
    140600   0.38112992     0.10495654     0              0.67637227     2.9785749    
    140700   0.36867919     0.10139297     0              0.65414172     2.848286     
    140800   0.36341885     0.10409308     0              0.64895518     2.8707761    
    140900   0.36552875     0.095260327    0              0.64328573     2.7634578    
    141000   0.35389347     0.099151707    0              0.62973271     2.8278864    
    141100   0.35084669     0.095084566    0              0.62109763     2.7773795    
    141200   0.35727697     0.10031992     0              0.63597369     2.8497101    
    141300   0.36041478     0.1077456      0              0.64810379     2.9782264    
    141400   0.35763601     0.092940405    0              0.62913247     2.7274116    
    141500   0.34953621     0.091047616    0              0.61509592     2.6736381    
    141600   0.34162898     0.093814952    0              0.60600821     2.6673191    
    141700   0.34139918     0.087499509    0              0.59934823     2.6778309    
    141800   0.33755953     0.084145047    0              0.59023711     2.4941693    
    141900   0.32191359     0.092799894    0              0.5754345      2.7111356    
    142000   0.33273909     0.082266277    0              0.58113121     2.4993634    
    142100   0.33828644     0.093738475    0              0.60092037     2.7253207    
    142200   0.33800327     0.087693913    0              0.59445125     2.5966277    
    142300   0.32446826     0.092825046    0              0.57928978     2.6742598    
    142400   0.32362339     0.083236759    0              0.56843481     2.5020278    
    142500   0.319624       0.077351234    0              0.55655313     2.3576127    
    142600   0.31603457     0.07514728     0              0.54896767     2.3826714    
    142700   0.30634294     0.08174893     0              0.54103897     2.4660547    
    142800   0.30008755     0.078817926    0              0.52872946     2.4348808    
    142900   0.30320409     0.075582429    0              0.53016649     2.3529775    
    143000   0.31037161     0.080024587    0              0.54535468     2.4527597    
    143100   0.30666029     0.080430331    0              0.54019616     2.4620062    
    143200   0.29478467     0.082214098    0              0.52417519     2.4646633    
    143300   0.29744143     0.073018541    0              0.51896283     2.3184445    
    143400   0.29382342     0.068953377    0              0.50947331     2.2366481    
    143500   0.28794372     0.068879458    0              0.50058414     2.2057122    
    143600   0.28637199     0.065905049    0              0.49525329     2.1973198    
    143700   0.28049668     0.071386341    0              0.49192592     2.230467     
    143800   0.27908405     0.070422088    0              0.48884375     2.2547128    
    143900   0.27743481     0.065694119    0              0.48164314     2.1373271    
    144000   0.26820437     0.070212238    0              0.47232235     2.2589265    
    144100   0.27051414     0.065087209    0              0.47066028     2.1356624    
    144200   0.27298632     0.070168524    0              0.47944807     2.2228166    
    144300   0.2700256      0.075665528    0              0.48050616     2.3384061    
    144400   0.26465257     0.063385636    0              0.46017065     2.0426463    
    144500   0.25847139     0.064720078    0              0.45223785     2.1042818    
    144600   0.25524763     0.06550548     0              0.44818998     2.1320889    
    144700   0.2531638      0.062594851    0              0.44215513     2.0659817    
    144800   0.24732291     0.058400069    0              0.42920329     1.9676334    
    144900   0.24385582     0.057048044    0              0.42265317     1.8947565    
    145000   0.2456825      0.061997287    0              0.43034109     2.0578845    
    145100   0.2559657      0.059243445    0              0.44300452     1.9921798    
    145200   0.24306165     0.062216837    0              0.42663128     2.0824629    
    145300   0.23943774     0.054972875    0              0.41395412     1.9126489    
    145400   0.23445375     0.053848076    0              0.40535698     1.892026     
    145500   0.23174441     0.052584297    0              0.40003118     1.8441026    
    145600   0.22725076     0.051581411    0              0.39229111     1.8104019    
    145700   0.2210444      0.051046389    0              0.38245109     1.8301578    
    145800   0.21622982     0.052808086    0              0.37699444     1.848219     
    145900   0.21866673     0.053272851    0              0.38111279     1.8394408    
    146000   0.22151182     0.055513184    0              0.38761868     1.9117579    
    146100   0.21727949     0.048790921    0              0.37455101     1.7525579    
    146200   0.20955112     0.049152113    0              0.36332531     1.7406523    
    146300   0.20568062     0.048783973    0              0.35715426     1.6841134    
    146400   0.20274486     0.045552559    0              0.34952135     1.6223885    
    146500   0.19776177     0.046387215    0              0.34288502     1.6894378    
    146600   0.19617447     0.04239884     0              0.33651686     1.5774623    
    146700   0.18920612     0.040517014    0              0.32418762     1.5363683    
    146800   0.18804843     0.044803966    0              0.32673888     1.6454321    
    146900   0.19411004     0.044790326    0              0.33581322     1.6202358    
    147000   0.19237939     0.042568681    0              0.33099687     1.6097886    
    147100   0.18630196     0.041708743    0              0.32102523     1.5582338    
    147200   0.18226715     0.038893405    0              0.31216063     1.4757252    
    147300   0.17872318     0.037482713    0              0.30543659     1.4634617    
    147400   0.17604806     0.036852139    0              0.30079528     1.4538176    
    147500   0.17079592     0.037512335    0              0.29358112     1.4647432    
    147600   0.16532596     0.036026087    0              0.28389394     1.4197727    
    147700   0.16396093     0.031340792    0              0.2771621      1.3351002    
    147800   0.16697269     0.0352915      0              0.28562824     1.4043121    
    147900   0.17003409     0.035223986    0              0.29015059     1.4120757    
    148000   0.16299483     0.032823662    0              0.27719653     1.3487461    
    148100   0.15777686     0.030377744    0              0.26692748     1.2696949    
    148200   0.15278314     0.030470496    0              0.2595333      1.2537368    
    148300   0.15000294     0.029728203    0              0.25462275     1.2314141    
    148400   0.14604746     0.029340103    0              0.24830432     1.2216738    
    148500   0.14432134     0.027306605    0              0.24368291     1.1715742    
    148600   0.1425894      0.025984502    0              0.23976417     1.149549     
    148700   0.13532816     0.025921266    0              0.22881439     1.1452644    
    148800   0.13352444     0.025799714    0              0.22598858     1.122915     
    148900   0.13311735     0.028013341    0              0.22759188     1.1835522    
    149000   0.12962779     0.027551603    0              0.22189835     1.1960789    
    149100   0.12494977     0.027628856    0              0.21496199     1.1639667    
    149200   0.12543189     0.022899616    0              0.21095558     1.0298142    
    149300   0.1218908      0.022216548    0              0.20496348     0.99951342   
    149400   0.11978646     0.020436274    0              0.20002823     0.95068316   
    149500   0.11599949     0.021568551    0              0.19548283     0.98920961   
    149600   0.11314471     0.020814251    0              0.19044845     0.94620665   
    149700   0.11061588     0.019498226    0              0.18534103     0.92914978   
    149800   0.10797973     0.01838196     0              0.18027246     0.90872676   
    149900   0.10518248     0.017819303    0              0.17551599     0.90979028   
    150000   0.10229737     0.017075798    0              0.17044693     0.87722517   
Loop time of 17.2091 on 1 procs for 100000 steps with 2048 atoms

Performance: 1004118.698 tau/day, 5810.872 timesteps/s, 11.901 Matom-step/s
99.1% CPU use with 1 MPI tasks x 1 OpenMP threads

MPI task timing breakdown:
Section |  min time  |  avg time  |  max time  |%varavg| %total
---------------------------------------------------------------
Pair    | 7.2473     | 7.2473     | 7.2473     |   0.0 | 42.11
Neigh   | 5.8499     | 5.8499     | 5.8499     |   0.0 | 33.99
Comm    | 0.84216    | 0.84216    | 0.84216    |   0.0 |  4.89
Output  | 0.13371    | 0.13371    | 0.13371    |   0.0 |  0.78
Modify  | 2.5371     | 2.5371     | 2.5371     |   0.0 | 14.74
Other   |            | 0.599      |            |       |  3.48

Nlocal:           2048 ave        2048 max        2048 min
Histogram: 1 0 0 0 0 0 0 0 0 0
Nghost:           1476 ave        1476 max        1476 min
Histogram: 1 0 0 0 0 0 0 0 0 0
Neighs:           9189 ave        9189 max        9189 min
Histogram: 1 0 0 0 0 0 0 0 0 0

Total # of neighbors = 9189
Ave neighs/atom = 4.4868164
Neighbor list builds = 6485
Dangerous builds = 0
Total wall time: 0:00:27
