LAMMPS (15 Sep 2022)
OMP_NUM_THREADS environment is not set. Defaulting to 1 thread. (src/comm.cpp:98)
  using 1 OpenMP thread(s) per MPI task
# 3d WCA system, random initial configuration

#variable density equal 0.5
variable initial_temperature equal 3.0
variable final_temperature equal 0.1
variable dt equal 0.002
variable tau equal 100*${dt}
variable tau equal 100*0.002
variable thermo_time equal 50000*${dt}
variable thermo_time equal 50000*0.002
variable equil_steps equal 50000
variable run_steps equal 100000

units           lj
atom_style      atomic
dimension       3

lattice         fcc ${density}
lattice         fcc 1.1
Lattice spacing in x,y,z = 1.5377619 1.5377619 1.5377619
region          box block 0 8 0 8 0 8
# number of atom types
create_box      1 box
Created orthogonal box = (0 0 0) to (12.302095 12.302095 12.302095)
  1 by 1 by 1 MPI processor grid
create_atoms    1 box
Created 2048 atoms
  using lattice units in orthogonal box = (0 0 0) to (12.302095 12.302095 12.302095)
  create_atoms CPU = 0.000 seconds
mass 1 1.0

velocity all create ${initial_temperature} 12345
velocity all create 3 12345

pair_style      lj/cut 1.0
#type_1 type_2 epsilon sigma cutoff
pair_coeff      1 1 10.0 0.89089871814 1.0
pair_modify shift yes

timestep ${dt}
timestep 0.002
thermo ${thermo_time}
thermo 100

fix 1 all nvt temp ${initial_temperature} ${initial_temperature} ${tau}
fix 1 all nvt temp 3 ${initial_temperature} ${tau}
fix 1 all nvt temp 3 3 ${tau}
fix 1 all nvt temp 3 3 0.2
run ${equil_steps}
run 50000
Generated 0 of 0 mixed pair_coeff terms from geometric mixing rule
Neighbor list info ...
  update: every = 1 steps, delay = 0 steps, check = yes
  max neighbors/atom: 2000, page size: 100000
  master list distance cutoff = 1.3
  ghost atom cutoff = 1.3
  binsize = 0.65, bins = 19 19 19
  1 neighbor lists, perpetual/occasional/extra = 1 0 0
  (1) pair lj/cut, perpetual
      attributes: half, newton on
      pair build: half/bin/atomonly/newton
      stencil: half/bin/3d
      bin: standard
Per MPI rank memory allocation (min/avg/max) = 3.162 | 3.162 | 3.162 Mbytes
   Step          Temp          E_pair         E_mol          TotEng         Press     
         0   3              0              0              4.4978027      3.2983887    
       100   2.30809        1.3535947      0              4.8140393      23.541604    
       200   2.5318841      1.5680914      0              5.3640632      25.90072     
       300   2.723071       1.8509403      0              5.9335525      29.163882    
       400   2.9903798      1.9551145      0              6.4384939      30.633532    
       500   2.9857497      2.3123779      0              6.7888157      34.459688    
       600   3.0797101      2.3380974      0              6.9554069      34.944357    
       700   3.0228655      2.3511562      0              6.8832404      35.200572    
       800   2.9182361      2.3724099      0              6.7476267      35.342892    
       900   2.9760418      2.2641957      0              6.7260786      34.254527    
      1000   2.9489176      2.3954708      0              6.8166874      35.544226    
      1100   3.0109479      2.3999233      0              6.9141398      35.723611    
      1200   3.0225303      2.4042547      0              6.9358365      35.994587    
      1300   3.0530789      2.2945548      0              6.871937       34.571368    
      1400   3.0004399      2.2890883      0              6.7875505      34.504075    
      1500   2.9668055      2.308061       0              6.7560963      34.79096     
      1600   2.9804246      2.351364       0              6.819818       35.16263     
      1700   3.0343051      2.3624367      0              6.911672       35.423702    
      1800   3.0057005      2.4350068      0              6.9413561      36.081468    
      1900   3.0060142      2.3684771      0              6.8752968      35.400413    
      2000   3.0120891      2.2793371      0              6.7952646      34.367319    
      2100   2.8880555      2.4163805      0              6.7463485      35.851103    
      2200   2.9653784      2.3724112      0              6.818307       35.713007    
      2300   3.0468342      2.3568432      0              6.9248629      35.602116    
      2400   3.0374614      2.4089881      0              6.9629555      36.275121    
      2500   2.9817026      2.3496198      0              6.8199898      35.27371     
      2600   2.94468        2.297885       0              6.7127483      34.594032    
      2700   3.0147081      2.2756134      0              6.7954675      34.617815    
      2800   2.9993405      2.3420782      0              6.8388921      35.166026    
      2900   3.0363224      2.312977       0              6.8652368      34.791354    
      3000   2.973715       2.4291864      0              6.8875809      36.031103    
      3100   2.9955014      2.4607925      0              6.9518507      36.258372    
      3200   3.0316367      2.3347008      0              6.8799354      35.025257    
      3300   2.9807732      2.2925872      0              6.7615637      34.47549     
      3400   2.9684782      2.3287044      0              6.7792475      34.924995    
      3500   3.0491001      2.3614617      0              6.9328787      35.34194     
      3600   3.045479       2.3932264      0              6.9592143      35.357853    
      3700   2.9475609      2.3386602      0              6.7578428      35.042861    
      3800   2.894496       2.3190801      0              6.6587041      34.875517    
      3900   2.9769132      2.3025121      0              6.7657015      34.78176     
      4000   3.0467923      2.3247399      0              6.8926968      34.870629    
      4100   3.0639519      2.3063734      0              6.9000572      35.069256    
      4200   3.0771771      2.2295999      0              6.8431118      34.167589    
      4300   2.937431       2.2687576      0              6.6727527      34.574459    
      4400   2.889889       2.283599       0              6.6163159      34.557887    
      4500   3.0217294      2.2789597      0              6.8093406      34.617271    
      4600   3.0166764      2.3604879      0              6.883293       35.401224    
      4700   3.0374033      2.3542752      0              6.9081555      35.308595    
      4800   2.9970317      2.3370247      0              6.8303772      35.017849    
      4900   2.9205096      2.2943741      0              6.6729994      34.348145    
      5000   2.9003296      2.3390532      0              6.6874234      35.080711    
      5100   2.9891502      2.4082211      0              6.889757       35.680814    
      5200   3.0508988      2.3683943      0              6.9425079      35.623968    
      5300   3.0719605      2.2819164      0              6.8876073      34.700653    
      5400   2.9867753      2.2741509      0              6.7521262      34.391648    
      5500   2.9811431      2.2532534      0              6.7227846      34.347952    
      5600   2.9505441      2.4288526      0              6.8525077      35.985368    
      5700   3.0456859      2.4541208      0              7.020419       36.226393    
      5800   3.0284959      2.4156908      0              6.9562165      36.170513    
      5900   2.9365269      2.4524585      0              6.8550981      36.232023    
      6000   2.9970632      2.3379577      0              6.8313574      34.999193    
      6100   2.9828622      2.3732443      0              6.8453529      35.526743    
      6200   3.0450339      2.3880986      0              6.9534192      35.633642    
      6300   3.0982086      2.3966335      0              7.0416772      35.651758    
      6400   3.0529481      2.3070189      0              6.884205       34.867139    
      6500   2.9461833      2.3557491      0              6.7728662      35.001795    
      6600   3.04434        2.2083257      0              6.7726059      34.059139    
      6700   3.0077634      2.3115978      0              6.8210399      34.852083    
      6800   3.1157024      2.3829501      0              7.0542217      35.842884    
      6900   3.1134867      2.3750359      0              7.0429856      35.316481    
      7000   3.0390351      2.3272101      0              6.883537       34.922035    
      7100   2.9975071      2.3058403      0              6.7999056      34.604605    
      7200   2.973934       2.3119704      0              6.7706933      34.672643    
      7300   2.9352192      2.4441803      0              6.8448592      36.238627    
      7400   3.120605       2.3331698      0              7.0117918      35.070375    
      7500   3.0582999      2.3760153      0              6.9612252      35.557977    
      7600   2.9857348      2.3186271      0              6.7950425      35.011768    
      7700   2.9429328      2.350294       0              6.7625377      35.003421    
      7800   3.0177167      2.2902656      0              6.8146304      34.623886    
      7900   2.9870357      2.3852117      0              6.8635775      35.397725    
      8000   3.0810648      2.2948037      0              6.9141443      34.548574    
      8100   3.0209554      2.4149294      0              6.9441499      35.960134    
      8200   2.9874406      2.3751876      0              6.8541605      35.537368    
      8300   2.9782183      2.2760494      0              6.7411955      34.279794    
      8400   2.9534362      2.3420541      0              6.7700453      35.241079    
      8500   3.0978122      2.3244024      0              6.9688519      34.892052    
      8600   3.0813077      2.3518045      0              6.9715093      35.630963    
      8700   3.0282044      2.3478459      0              6.8879346      35.469402    
      8800   2.9554093      2.40574        0              6.8366894      35.739838    
      8900   3.0084591      2.3233691      0              6.8338543      34.875811    
      9000   3.0108216      2.2918575      0              6.8058847      34.837775    
      9100   2.8997302      2.3652642      0              6.7127357      35.085694    
      9200   2.9521173      2.1787122      0              6.6047259      33.177443    
      9300   2.9269077      2.33368        0              6.7218978      34.997327    
      9400   3.0075251      2.3824645      0              6.8915493      35.653758    
      9500   3.0717298      2.3273505      0              6.9326953      34.89878     
      9600   3.0010339      2.3205009      0              6.8198538      34.742909    
      9700   2.9637008      2.2562563      0              6.6996368      34.202624    
      9800   2.9564561      2.3285371      0              6.761056       34.960803    
      9900   3.0142067      2.3074284      0              6.8265308      34.727985    
     10000   2.9965222      2.3477621      0              6.8403506      35.180821    
     10100   3.0659477      2.2359026      0              6.8325786      34.074284    
     10200   2.9920593      2.2822287      0              6.7681262      34.483521    
     10300   2.9880083      2.1685292      0              6.6483531      33.567413    
     10400   2.9501849      2.2735824      0              6.6966989      34.657151    
     10500   3.034442       2.3425751      0              6.8920155      35.234268    
     10600   2.9931265      2.4150318      0              6.9025293      35.800831    
     10700   2.9775205      2.3552278      0              6.8193278      34.975337    
     10800   2.9295571      2.2909677      0              6.6831577      34.49792     
     10900   2.9161126      2.3587297      0              6.7307627      35.276523    
     11000   3.0516004      2.4027761      0              6.9779417      35.785875    
     11100   3.0634352      2.3397666      0              6.9326756      35.308987    
     11200   2.9580643      2.3742695      0              6.8091994      35.402487    
     11300   2.9635773      2.3184217      0              6.761617       35.021536    
     11400   3.0576043      2.3324098      0              6.9165769      35.111829    
     11500   3.0983235      2.3838459      0              7.0290618      35.690751    
     11600   3.0416976      2.3629017      0              6.9232203      35.432338    
     11700   2.9941534      2.3365383      0              6.8255755      35.253364    
     11800   3.018797       2.2856409      0              6.8116254      34.633603    
     11900   3.0502287      2.2912626      0              6.8643716      34.650391    
     12000   3.0956548      2.3767546      0              7.0179694      35.818338    
     12100   3.1109027      2.4191115      0              7.0831871      35.815034    
     12200   2.9649051      2.4331326      0              6.8783187      35.78117     
     12300   3.0209446      2.2913224      0              6.8205267      34.84219     
     12400   3.0706843      2.1930951      0              6.7968724      33.726138    
     12500   2.947204       2.3758915      0              6.7945388      35.291496    
     12600   2.9948511      2.4347317      0              6.9248148      35.872904    
     12700   3.0369118      2.4810222      0              7.0341655      36.505328    
     12800   3.0116219      2.4088228      0              6.9240499      35.643991    
     12900   2.9777207      2.3029849      0              6.767385       35.080863    
     13000   2.9510277      2.345525       0              6.7699051      35.136606    
     13100   2.9911002      2.3297469      0              6.8142064      35.253119    
     13200   3.0335991      2.3720001      0              6.9201769      35.770948    
     13300   3.0976493      2.4092243      0              7.0534295      35.718912    
     13400   3.037588       2.3401377      0              6.894295       35.036723    
     13500   2.9508138      2.3275097      0              6.7515691      34.888721    
     13600   3.0166029      2.2630037      0              6.7856986      34.38041     
     13700   3.0309875      2.3507514      0              6.8950127      35.232554    
     13800   3.0531874      2.4121244      0              6.9896692      35.801836    
     13900   3.004323       2.3552924      0              6.8595765      35.33144     
     14000   2.9485883      2.2598289      0              6.6805518      34.523528    
     14100   2.9703802      2.299771       0              6.7531657      34.944585    
     14200   2.9975721      2.3962694      0              6.8904321      35.67875     
     14300   2.9978279      2.4297521      0              6.9242984      35.891331    
     14400   3.0337897      2.3112994      0              6.8597619      35.066929    
     14500   2.9747635      2.251812       0              6.7117784      34.277194    
     14600   2.9459071      2.2853236      0              6.7020265      34.736293    
     14700   2.9918668      2.2872824      0              6.7728914      34.148021    
     14800   2.9911743      2.383233       0              6.8678036      35.5788      
     14900   3.0386553      2.3892245      0              6.9449819      35.57793     
     15000   3.004176       2.3774857      0              6.8815494      35.402127    
     15100   2.9067253      2.3281663      0              6.6861252      34.726957    
     15200   2.9916626      2.2025116      0              6.6878143      33.651132    
     15300   2.931987       2.396539       0              6.7923721      35.604145    
     15400   3.0201852      2.3335979      0              6.8616637      35.17413     
     15500   2.9987832      2.3841263      0              6.8801047      35.452605    
     15600   3.0683104      2.2960279      0              6.8962462      34.877233    
     15700   2.9250575      2.3770836      0              6.7625274      35.37616     
     15800   2.8529463      2.365335       0              6.6426649      35.204551    
     15900   2.9615521      2.3359568      0              6.7761158      35.217355    
     16000   3.0689556      2.2806416      0              6.8818272      34.896342    
     16100   3.0554809      2.2701436      0              6.8511271      34.674048    
     16200   2.9966606      2.3038881      0              6.7966842      34.733964    
     16300   2.980821       2.3548325      0              6.8238808      35.385021    
     16400   3.0827151      2.3820316      0              7.0038464      35.843478    
     16500   3.0584062      2.4416799      0              7.0270493      36.037849    
     16600   2.9757055      2.3855107      0              6.8468895      35.635976    
     16700   3.0015418      2.3008034      0              6.8009177      34.766889    
     16800   2.9981829      2.345873       0              6.8409513      35.356118    
     16900   3.0917444      2.3366137      0              6.9719658      35.385877    
     17000   2.9896109      2.4563298      0              6.9385565      36.555963    
     17100   2.9028382      2.3386748      0              6.690806       34.816391    
     17200   2.9606843      2.28292        0              6.721778       34.507969    
     17300   2.9982623      2.3441683      0              6.8393657      35.22147     
     17400   3.0664417      2.3312462      0              6.9286628      35.059998    
     17500   2.9731592      2.4691081      0              6.9266693      36.378196    
     17600   2.9770181      2.2639306      0              6.7272774      34.546476    
     17700   2.9456357      2.2457441      0              6.6620402      33.91779     
     17800   3.0226899      2.2597515      0              6.7915725      34.358853    
     17900   3.0378789      2.3499459      0              6.9045393      35.266744    
     18000   3.0133823      2.3775655      0              6.8954319      35.37736     
     18100   3.0004521      2.3082843      0              6.8067647      35.058561    
     18200   2.9581169      2.3261835      0              6.7611923      35.152837    
     18300   2.9541552      2.4236907      0              6.8527598      35.629526    
     18400   3.1034527      2.4384705      0              7.0913765      36.083405    
     18500   3.0458062      2.3909717      0              6.9574501      35.581239    
     18600   3.027996       2.2826847      0              6.8224609      34.71701     
     18700   2.9279347      2.3875598      0              6.7773173      35.669168    
     18800   3.0565766      2.2937168      0              6.8763431      34.902353    
     18900   3.0438135      2.4375666      0              7.0010574      36.22353     
     19000   3.1279117      2.434127       0              7.1237036      36.170603    
     19100   3.0992468      2.3144754      0              6.9610757      34.819943    
     19200   2.9703144      2.3472837      0              6.8005798      35.198054    
     19300   3.0080576      2.2667174      0              6.7766006      34.340641    
     19400   3.0028408      2.3226676      0              6.8247295      34.600996    
     19500   3.1090911      2.3177594      0              6.9791189      35.071524    
     19600   3.1084711      2.3297381      0              6.990168       35.224924    
     19700   2.9462463      2.3838676      0              6.8010792      35.640802    
     19800   2.9644171      2.34603        0              6.7904845      34.977306    
     19900   2.9898322      2.3579051      0              6.8404636      35.187175    
     20000   2.9950638      2.4533261      0              6.9437281      36.050476    
     20100   3.0062336      2.4838805      0              6.9910291      36.491978    
     20200   2.9769681      2.3371967      0              6.8004685      35.204961    
     20300   2.9362935      2.3087113      0              6.7110009      34.669305    
     20400   2.9938449      2.3216178      0              6.8101923      35.1631      
     20500   3.0050327      2.4063298      0              6.9116779      35.949517    
     20600   2.9885979      2.4012243      0              6.8819323      35.722965    
     20700   3.0094608      2.3496277      0              6.8616147      35.052705    
     20800   3.0144794      2.3414596      0              6.8609708      34.942126    
     20900   2.9755063      2.3161391      0              6.7772191      34.93946     
     21000   2.8690957      2.2960467      0              6.5975888      34.714867    
     21100   2.8752196      2.4079845      0              6.7187081      35.560113    
     21200   3.0300275      2.3216256      0              6.8644477      34.945692    
     21300   3.0472221      2.3192416      0              6.8878429      34.955975    
     21400   3.0770406      2.2891357      0              6.9024429      34.705088    
     21500   3.0506544      2.3010662      0              6.8748134      34.976664    
     21600   2.9962518      2.2549487      0              6.747132       34.187827    
     21700   2.8963293      2.3251107      0              6.6674833      34.98816     
     21800   2.9580831      2.3725503      0              6.8075084      35.299812    
     21900   3.0055575      2.4408295      0              6.9469644      35.985659    
     22000   3.0430553      2.361024       0              6.9233782      35.239327    
     22100   2.9955618      2.333819       0              6.8249677      35.050629    
     22200   2.975584       2.3038072      0              6.7650038      34.83        
     22300   2.9935064      2.3055049      0              6.793572       34.84772     
     22400   2.9809353      2.3535555      0              6.8227751      35.175309    
     22500   2.9436382      2.4250017      0              6.838303       35.906656    
     22600   2.9931743      2.3924912      0              6.8800604      35.462647    
     22700   3.0529052      2.3101528      0              6.8872746      34.959796    
     22800   3.0104178      2.2789902      0              6.7924119      34.717926    
     22900   2.9773046      2.2133825      0              6.6771587      33.847664    
     23000   2.995722       2.2713762      0              6.7627651      34.658769    
     23100   3.0743924      2.3545735      0              6.9639102      35.367255    
     23200   3.0135924      2.4136329      0              6.9318143      35.646305    
     23300   2.9901317      2.3250909      0              6.8080985      34.763419    
     23400   2.908235       2.3996062      0              6.7598286      35.665432    
     23500   3.0600891      2.3103626      0              6.898255       35.156152    
     23600   3.1434492      2.3443185      0              7.0571901      35.303231    
     23700   3.0325998      2.4131045      0              6.9597831      35.789186    
     23800   2.9888621      2.3907736      0              6.8718776      35.767685    
     23900   2.9964632      2.313587       0              6.8060872      34.886304    
     24000   3.0115754      2.267704       0              6.7828613      34.427273    
     24100   3.0286481      2.3189685      0              6.8597224      35.08025     
     24200   3.0476386      2.4495086      0              7.0187343      36.140222    
     24300   3.0509895      2.3715151      0              6.9457647      35.432374    
     24400   2.9852242      2.336116       0              6.8117658      35.028594    
     24500   2.9904268      2.3188376      0              6.8022875      34.859991    
     24600   2.9963719      2.3489732      0              6.8413364      35.243099    
     24700   3.0265229      2.3790464      0              6.9166141      35.856151    
     24800   3.1009098      2.3797176      0              7.0288111      35.762026    
     24900   3.0311564      2.4528438      0              6.9973583      36.490379    
     25000   2.9604045      2.3706971      0              6.8091356      35.449545    
     25100   2.9681485      2.3141127      0              6.7641615      34.999771    
     25200   2.9638186      2.3882059      0              6.8317631      35.707766    
     25300   3.1249723      2.2907676      0              6.9759372      34.961121    
     25400   3.0701437      2.5023513      0              7.1053182      36.634241    
     25500   3.0037691      2.4178461      0              6.9212998      35.792129    
     25600   3.0226884      2.2591464      0              6.7909651      34.289656    
     25700   2.9598143      2.3540116      0              6.7915651      35.426004    
     25800   2.9782801      2.4356402      0              6.900879       35.959267    
     25900   3.0338515      2.4549058      0              7.0034609      36.284674    
     26000   3.006674       2.3768061      0              6.8846149      35.4371      
     26100   2.9421708      2.29296        0              6.7040612      34.538585    
     26200   2.9110224      2.4014039      0              6.7658054      35.44589     
     26300   3.0181199      2.3661231      0              6.8910925      35.388212    
     26400   2.9849737      2.4131676      0              6.8884419      35.959007    
     26500   3.0284258      2.2496692      0              6.7900899      34.08603     
     26600   2.9196118      2.2226066      0              6.5998859      33.963152    
     26700   2.9675357      2.2424879      0              6.691618       34.167337    
     26800   2.9631226      2.3786159      0              6.8211294      35.301309    
     26900   3.0081042      2.3566688      0              6.8666219      35.24895     
     27000   2.9872492      2.3834543      0              6.8621402      35.447594    
     27100   2.9806643      2.3536645      0              6.8224778      35.28759     
     27200   2.977653       2.254991       0              6.7192896      34.379059    
     27300   2.9473275      2.3067878      0              6.7256203      34.805562    
     27400   3.0131715      2.4016826      0              6.919233       35.768819    
     27500   3.06289        2.3694715      0              6.9615632      35.439769    
     27600   3.0116319      2.3568642      0              6.8721063      35.216455    
     27700   3.0353953      2.2229659      0              6.7738356      34.099774    
     27800   2.972813       2.2988194      0              6.7558615      34.800829    
     27900   2.994016       2.3067737      0              6.7956048      34.685181    
     28000   3.0391169      2.3013464      0              6.8577958      34.879434    
     28100   3.0159115      2.3420935      0              6.8637519      35.305553    
     28200   2.9458729      2.409498       0              6.8261497      35.610416    
     28300   2.9586854      2.3162338      0              6.752095       34.922308    
     28400   2.9765544      2.2652681      0              6.7279195      34.551162    
     28500   3.0194076      2.2999088      0              6.8268088      34.72968     
     28600   2.9911599      2.4227528      0              6.9073019      36.088975    
     28700   3.044374       2.3705212      0              6.9348524      35.674888    
     28800   3.0306283      2.2644772      0              6.8082         34.511073    
     28900   2.9350761      2.2740475      0              6.674512       34.345642    
     29000   2.9260185      2.384198       0              6.7710826      35.68885     
     29100   3.0451928      2.3269459      0              6.8925047      34.927589    
     29200   3.0067535      2.3860663      0              6.8939943      35.450682    
     29300   2.9673606      2.3804952      0              6.8293628      35.516283    
     29400   2.9781317      2.3039423      0              6.7689585      34.790405    
     29500   2.9505076      2.2631347      0              6.686735       34.450632    
     29600   2.9488815      2.2578831      0              6.6790455      33.997532    
     29700   2.9775725      2.3459738      0              6.8101517      34.989131    
     29800   3.05717        2.3309422      0              6.9144581      35.01232     
     29900   3.0182861      2.3741153      0              6.8993339      35.338449    
     30000   2.9318936      2.2971188      0              6.6928119      34.648812    
     30100   2.8664142      2.3509922      0              6.6485141      35.333794    
     30200   3.010787       2.2760511      0              6.7900265      34.325989    
     30300   3.0008002      2.3696413      0              6.8686437      35.387042    
     30400   3.0395852      2.3620155      0              6.9191671      35.347924    
     30500   2.9967537      2.379619       0              6.8725546      35.314193    
     30600   2.9813129      2.2261908      0              6.6959765      34.209612    
     30700   2.91311        2.2682741      0              6.6358055      34.34575     
     30800   2.9448535      2.4375913      0              6.8527146      35.804705    
     30900   3.0681253      2.3185811      0              6.918522       35.068772    
     31000   3.0324831      2.2891973      0              6.8357009      34.633245    
     31100   2.9442664      2.3133728      0              6.7276159      34.953034    
     31200   2.963546       2.2894475      0              6.732596       34.547256    
     31300   3.1114655      2.2809484      0              6.9458678      34.850082    
     31400   3.0423969      2.4339258      0              6.9952929      35.998207    
     31500   3.0393626      2.3491639      0              6.9059817      35.16583     
     31600   2.974659       2.3356201      0              6.7954299      35.142586    
     31700   2.9444575      2.3550214      0              6.7695511      35.174318    
     31800   2.9463783      2.3800898      0              6.7974993      35.400509    
     31900   2.9713122      2.3914413      0              6.8462334      35.681202    
     32000   3.1000653      2.4043111      0              7.0521385      35.915885    
     32100   3.0801161      2.5198759      0              7.1377941      37.031095    
     32200   3.0298288      2.4297559      0              6.9722799      36.259172    
     32300   3.0214386      2.3274704      0              6.8574153      35.170662    
     32400   3.0131819      2.2864809      0              6.8040469      34.807732    
     32500   3.0373176      2.273228       0              6.8269798      34.522173    
     32600   3.0811602      2.3426602      0              6.9621437      35.395047    
     32700   3.0919814      2.363694       0              6.9994014      35.439993    
     32800   2.9940712      2.3212568      0              6.8101707      35.135455    
     32900   2.9753918      2.2909218      0              6.7518303      34.57683     
     33000   2.9790888      2.3343721      0              6.8008234      35.027803    
     33100   3.0533246      2.3291776      0              6.9069282      35.111074    
     33200   2.9946194      2.438415       0              6.9281507      36.245712    
     33300   2.9485667      2.2822293      0              6.7029198      34.635265    
     33400   2.928182       2.2570461      0              6.6471745      34.333992    
     33500   2.956577       2.3873721      0              6.8200722      35.536277    
     33600   3.0446663      2.3387981      0              6.9035677      34.909692    
     33700   2.972275       2.3984854      0              6.854721       35.768063    
     33800   2.9530788      2.3020015      0              6.7294568      34.654059    
     33900   2.9314488      2.2362332      0              6.6312593      33.928997    
     34000   2.9833548      2.3095642      0              6.7824113      34.780815    
     34100   3.0452575      2.3725759      0              6.9382318      35.655114    
     34200   3.0572346      2.3238452      0              6.9074579      35.221743    
     34300   2.9290863      2.3596754      0              6.7511595      34.899051    
     34400   3.0022685      2.2261903      0              6.7273942      34.224972    
     34500   2.979056       2.3550378      0              6.8214399      35.279487    
     34600   3.0527708      2.3303104      0              6.9072306      35.199627    
     34700   3.0443723      2.3116061      0              6.8759349      34.988293    
     34800   2.9435144      2.3831104      0              6.7962261      35.586663    
     34900   2.9870569      2.2932504      0              6.7716479      34.723971    
     35000   2.9657855      2.4702284      0              6.9167344      36.395285    
     35100   3.0908768      2.4199929      0              7.0540444      36.014073    
     35200   3.0942543      2.3156719      0              6.9547871      34.961234    
     35300   2.9865068      2.3699999      0              6.8475727      35.490101    
     35400   3.0858351      2.2262089      0              6.8527015      34.18098     
     35500   2.9166612      2.4893298      0              6.8621854      36.228905    
     35600   3.0176911      2.3782377      0              6.9025641      35.608814    
     35700   3.0021486      2.4326363      0              6.9336604      35.994334    
     35800   2.9803088      2.3862687      0              6.8545491      35.507526    
     35900   2.92266        2.3261683      0              6.7080176      34.79327     
     36000   2.9088424      2.3454169      0              6.70655        35.041259    
     36100   3.0238476      2.3588152      0              6.8923718      35.364738    
     36200   2.9718311      2.4622856      0              6.9178556      36.345978    
     36300   3.008449       2.3749347      0              6.8854047      35.291109    
     36400   2.9779323      2.328425       0              6.7931424      35.018319    
     36500   2.931873       2.3325778      0              6.7282399      35.21813     
     36600   2.9495129      2.3285972      0              6.7507062      35.15424     
     36700   3.0258648      2.3868616      0              6.9234426      35.445536    
     36800   3.0899047      2.3085648      0              6.9411586      34.78727     
     36900   2.9661705      2.3439293      0              6.7910126      34.989838    
     37000   2.9228423      2.3196446      0              6.7017674      34.83327     
     37100   2.9503628      2.3459048      0              6.7692881      35.033402    
     37200   3.0477777      2.278198       0              6.8476323      34.681111    
     37300   3.0447657      2.3194744      0              6.884393       35.128127    
     37400   2.9906918      2.4087059      0              6.8925531      35.761107    
     37500   2.9677288      2.3333602      0              6.7827797      34.827604    
     37600   2.8801104      2.2550018      0              6.5730579      34.09755     
     37700   2.9726975      2.192128       0              6.648997       33.520026    
     37800   2.9426819      2.3770052      0              6.7888727      35.466714    
     37900   2.9464358      2.4489653      0              6.8664609      36.153597    
     38000   3.0831448      2.3072712      0              6.9297303      34.935981    
     38100   2.954584       2.4340254      0              6.8637374      35.948187    
     38200   2.875766       2.3300317      0              6.6415745      35.178407    
     38300   2.8462287      2.4163889      0              6.6836473      35.637765    
     38400   3.0130816      2.3148738      0              6.8322894      35.058928    
     38500   3.0196232      2.3798929      0              6.9071161      35.559698    
     38600   2.9792331      2.4187404      0              6.8854081      35.981719    
     38700   2.9624434      2.3090076      0              6.750503       35.024595    
     38800   2.9409112      2.2346728      0              6.6438855      34.243316    
     38900   2.9015501      2.4340179      0              6.7842179      36.002574    
     39000   2.9608263      2.397101       0              6.8361718      35.534835    
     39100   2.9369594      2.439707       0              6.842995       35.852684    
     39200   3.0178026      2.3574923      0              6.8819859      35.264342    
     39300   2.9894706      2.4391818      0              6.9211981      36.009004    
     39400   3.0086414      2.4240367      0              6.9347952      36.001591    
     39500   3.0142475      2.2867142      0              6.8058778      34.863093    
     39600   2.932663       2.3183694      0              6.715216       34.849756    
     39700   3.0122195      2.3025755      0              6.8186986      34.715004    
     39800   3.0827701      2.3528755      0              6.9747727      35.349091    
     39900   3.0443068      2.3905239      0              6.9547544      35.425744    
     40000   3.0283516      2.3335708      0              6.8738801      35.164893    
     40100   2.9800918      2.3278809      0              6.795836       35.220269    
     40200   2.9794584      2.343485       0              6.8104904      35.089991    
     40300   3.0331566      2.4550418      0              7.0025552      36.218333    
     40400   3.0721989      2.4581648      0              7.064213       36.423757    
     40500   3.0135667      2.3830957      0              6.9012385      35.744991    
     40600   3.0348079      2.2837886      0              6.8337776      34.323521    
     40700   3.0011713      2.303345       0              6.8029039      34.733243    
     40800   2.973619       2.3598198      0              6.8180703      35.258134    
     40900   3.1616261      2.2273872      0              6.9675106      34.060093    
     41000   3.1208359      2.3155034      0              6.9944715      34.968993    
     41100   2.9122462      2.4176054      0              6.7838417      35.840057    
     41200   2.9469297      2.3462281      0              6.7644642      35.010387    
     41300   2.9824553      2.3631734      0              6.834672       35.100266    
     41400   3.0660472      2.3236627      0              6.9204878      35.12579     
     41500   2.999333       2.3606923      0              6.857495       35.215764    
     41600   2.919912       2.2674534      0              6.6451827      34.337175    
     41700   2.9670275      2.24326        0              6.6916282      34.138105    
     41800   3.0049759      2.3273765      0              6.8326395      35.037396    
     41900   2.9916567      2.4041791      0              6.8894729      35.818265    
     42000   3.0213673      2.350474       0              6.8803121      35.268511    
     42100   2.9746429      2.3904723      0              6.8502579      35.390612    
     42200   2.9066979      2.3124214      0              6.6703393      34.803844    
     42300   2.9667963      2.1786105      0              6.6266321      33.70146     
     42400   2.9561825      2.3669709      0              6.7990795      35.232502    
     42500   3.0081543      2.3860974      0              6.8961256      35.646248    
     42600   2.9844466      2.4383144      0              6.9127984      35.969247    
     42700   3.052809       2.325029       0              6.9020067      34.963629    
     42800   2.9562839      2.360409       0              6.7926696      35.189499    
     42900   2.9873664      2.2016417      0              6.6805033      33.887522    
     43000   2.9198479      2.3750832      0              6.7527165      35.413341    
     43100   3.0867186      2.3266619      0              6.954479       35.373766    
     43200   3.0458413      2.3491457      0              6.9156768      35.134839    
     43300   2.9853387      2.3272929      0              6.8031144      34.819932    
     43400   2.9298385      2.3560327      0              6.7486445      35.179587    
     43500   3.0326756      2.3084888      0              6.855281       35.100766    
     43600   3.1028238      2.4184884      0              7.0704515      35.931919    
     43700   3.1575441      2.267105       0              7.0011086      34.641973    
     43800   2.9674349      2.419871       0              6.8688499      35.832546    
     43900   2.9925152      2.3231155      0              6.8096966      34.942508    
     44000   3.0042713      2.3231447      0              6.8273512      35.150419    
     44100   3.0259943      2.4294029      0              6.9661781      36.073029    
     44200   3.1875066      2.3573991      0              7.1363245      35.487572    
     44300   3.0671521      2.365022       0              6.9635037      35.592807    
     44400   2.9717694      2.3878864      0              6.8433639      35.508067    
     44500   2.9804709      2.3226224      0              6.7911458      34.808259    
     44600   2.9588778      2.3530965      0              6.789246       35.242013    
     44700   3.0292977      2.3131335      0              6.8548613      35.165462    
     44800   3.0340152      2.4055555      0              6.9543561      35.850989    
     44900   3.072795       2.4060908      0              7.0130328      35.991849    
     45000   3.0333138      2.3720795      0              6.9198285      35.49347     
     45100   2.9527075      2.3223622      0              6.7492608      34.765792    
     45200   2.9520496      2.3269078      0              6.75282        34.590183    
     45300   3.0017518      2.3510387      0              6.8514679      35.301194    
     45400   3.0655252      2.3668912      0              6.9629337      35.434967    
     45500   3.1050646      2.4602384      0              7.1155611      36.443116    
     45600   3.073475       2.4080523      0              7.0160136      35.781955    
     45700   3.0164449      2.3053224      0              6.8277804      34.731012    
     45800   2.9755615      2.3000989      0              6.7612618      34.630167    
     45900   2.9738716      2.3255001      0              6.7841293      34.89148     
     46000   3.0578821      2.3372317      0              6.9218152      35.121977    
     46100   3.0523279      2.4331389      0              7.0093951      35.74715     
     46200   2.9815784      2.3610001      0              6.8311839      35.277303    
     46300   2.9126138      2.3384402      0              6.7052276      35.064453    
     46400   2.9466825      2.3448432      0              6.7627088      35.068913    
     46500   3.0418518      2.3353996      0              6.8959494      35.088722    
     46600   3.0175958      2.3954495      0              6.919633       35.90216     
     46700   2.9840167      2.3019808      0              6.7758203      34.799985    
     46800   2.8895355      2.283109       0              6.6152959      34.512849    
     46900   2.9700783      2.2958718      0              6.7488139      34.696618    
     47000   3.0403272      2.3189001      0              6.8771642      34.796785    
     47100   3.0913843      2.2926767      0              6.927489       35.044619    
     47200   2.9803068      2.4032458      0              6.8715231      35.631645    
     47300   2.9003         2.3420123      0              6.6903381      34.86823     
     47400   2.9588722      2.2272009      0              6.663342       34.177513    
     47500   2.9741273      2.4464304      0              6.9054431      35.814956    
     47600   3.0599276      2.3406131      0              6.9282633      35.355025    
     47700   3.023725       2.2886514      0              6.8220243      34.836592    
     47800   2.9264828      2.3434307      0              6.7310115      35.024051    
     47900   2.9137997      2.4016642      0              6.7702296      35.794661    
     48000   3.0579534      2.4132378      0              6.9979281      35.708989    
     48100   2.9574234      2.5273403      0              6.9613092      36.810462    
     48200   2.9549111      2.4109134      0              6.8411158      35.756348    
     48300   2.9759445      2.2718605      0              6.7335975      34.562465    
     48400   3.0074734      2.2528766      0              6.7618839      34.216657    
     48500   3.0101825      2.3121854      0              6.8252545      34.988769    
     48600   3.0632886      2.2715197      0              6.864209       34.844416    
     48700   3.0074767      2.36219        0              6.8712022      35.543085    
     48800   2.9575747      2.403561       0              6.8377568      35.740718    
     48900   2.9622906      2.3165761      0              6.7578424      35.085356    
     49000   2.9588768      2.2399015      0              6.6760495      34.297808    
     49100   3.0148958      2.2729959      0              6.7931314      34.501512    
     49200   3.0253071      2.3802354      0              6.9159803      35.509928    
     49300   2.9952551      2.4072383      0              6.8979272      35.849379    
     49400   2.9798449      2.3158773      0              6.7834621      34.962702    
     49500   2.8945603      2.270023       0              6.6097434      34.44962     
     49600   2.9707328      2.2654004      0              6.7193238      34.345936    
     49700   3.0245132      2.2898407      0              6.8243952      34.60304     
     49800   2.965572       2.4378759      0              6.8840619      35.958524    
     49900   3.061156       2.3089044      0              6.8983964      34.682119    
     50000   2.9356986      2.3918584      0              6.7932561      35.387889    
Loop time of 12.8514 on 1 procs for 50000 steps with 2048 atoms

Performance: 672301.149 tau/day, 3890.632 timesteps/s, 7.968 Matom-step/s
99.7% CPU use with 1 MPI tasks x 1 OpenMP threads

MPI task timing breakdown:
Section |  min time  |  avg time  |  max time  |%varavg| %total
---------------------------------------------------------------
Pair    | 5.7625     | 5.7625     | 5.7625     |   0.0 | 44.84
Neigh   | 4.9935     | 4.9935     | 4.9935     |   0.0 | 38.86
Comm    | 0.50517    | 0.50517    | 0.50517    |   0.0 |  3.93
Output  | 0.0074578  | 0.0074578  | 0.0074578  |   0.0 |  0.06
Modify  | 1.2644     | 1.2644     | 1.2644     |   0.0 |  9.84
Other   |            | 0.3184     |            |       |  2.48

Nlocal:           2048 ave        2048 max        2048 min
Histogram: 1 0 0 0 0 0 0 0 0 0
Nghost:           1572 ave        1572 max        1572 min
Histogram: 1 0 0 0 0 0 0 0 0 0
Neighs:          10872 ave       10872 max       10872 min
Histogram: 1 0 0 0 0 0 0 0 0 0

Total # of neighbors = 10872
Ave neighs/atom = 5.3085938
Neighbor list builds = 4635
Dangerous builds = 0

unfix 1
dump           1 all atom ${run_steps} 3dWCA_T${final_temperature}_d${density}_N${run_steps}.lammpstrj
dump           1 all atom 100000 3dWCA_T${final_temperature}_d${density}_N${run_steps}.lammpstrj
dump           1 all atom 100000 3dWCA_T0.1_d${density}_N${run_steps}.lammpstrj
dump           1 all atom 100000 3dWCA_T0.1_d1.1_N${run_steps}.lammpstrj
dump           1 all atom 100000 3dWCA_T0.1_d1.1_N100000.lammpstrj
dump           2 all dcd ${thermo_time} 3dWCA_T${final_temperature}_d${density}_N${run_steps}.dcd
dump           2 all dcd 100 3dWCA_T${final_temperature}_d${density}_N${run_steps}.dcd
dump           2 all dcd 100 3dWCA_T0.1_d${density}_N${run_steps}.dcd
dump           2 all dcd 100 3dWCA_T0.1_d1.1_N${run_steps}.dcd
dump           2 all dcd 100 3dWCA_T0.1_d1.1_N100000.dcd
fix 1 all nvt temp ${initial_temperature} ${final_temperature} ${tau}
fix 1 all nvt temp 3 ${final_temperature} ${tau}
fix 1 all nvt temp 3 0.1 ${tau}
fix 1 all nvt temp 3 0.1 0.2

run ${run_steps}
run 100000
Generated 0 of 0 mixed pair_coeff terms from geometric mixing rule
Per MPI rank memory allocation (min/avg/max) = 3.304 | 3.304 | 3.304 Mbytes
   Step          Temp          E_pair         E_mol          TotEng         Press     
     50000   2.9356986      2.3918584      0              6.7932561      35.387889    
     50100   2.9472631      2.4274893      0              6.8462253      36.024766    
     50200   3.0744507      2.4096441      0              7.0190684      35.853581    
     50300   3.1216949      2.3623981      0              7.042654       35.59512     
     50400   2.8844089      2.4403086      0              6.7648093      35.76003     
     50500   3.0049216      2.2333348      0              6.7385164      34.25467     
     50600   3.0333953      2.2596439      0              6.8075151      34.571799    
     50700   3.012476       2.3684287      0              6.8849364      35.440013    
     50800   3.0338146      2.2828423      0              6.8313422      34.639583    
     50900   2.8734208      2.3322541      0              6.6402808      34.579131    
     51000   2.9393521      2.196859       0              6.6037343      33.682714    
     51100   2.9584912      2.2761359      0              6.7117059      34.627346    
     51200   2.9587433      2.3465037      0              6.7824516      35.05313     
     51300   2.9757296      2.3365565      0              6.7979714      35.104406    
     51400   3.0171812      2.2053059      0              6.7288678      34.210761    
     51500   2.8770276      2.2602424      0              6.5736766      34.352023    
     51600   2.8410966      2.2034389      0              6.463003       33.742677    
     51700   2.9173226      2.3357831      0              6.7096303      34.819312    
     51800   2.9713578      2.3164093      0              6.7712698      34.912156    
     51900   2.9261559      2.3550874      0              6.7421781      34.990713    
     52000   2.8741227      2.3395818      0              6.6486607      34.834924    
     52100   2.9286875      2.1859166      0              6.5768028      33.549525    
     52200   2.8937935      2.2499991      0              6.5885698      34.064333    
     52300   2.959812       2.3185555      0              6.7561058      34.828051    
     52400   3.0109971      2.3009713      0              6.8152616      34.659378    
     52500   2.950471       2.2485592      0              6.6721048      34.299134    
     52600   2.8845108      2.2575229      0              6.5821765      34.372034    
     52700   2.9139682      2.2455407      0              6.6143588      34.085734    
     52800   2.9526776      2.226942       0              6.6537958      33.852634    
     52900   2.9570443      2.2865156      0              6.7199162      34.539205    
     53000   3.0167564      2.3058242      0              6.8287492      34.63681     
     53100   2.8620144      2.4474629      0              6.7383883      35.78436     
     53200   2.8241443      2.3463543      0              6.5805022      35.194886    
     53300   2.9119566      2.1922324      0              6.5580345      33.515492    
     53400   2.9001427      2.2573342      0              6.6054242      34.153639    
     53500   3.0357411      2.2334758      0              6.7848641      34.080406    
     53600   2.9796043      2.4233474      0              6.8905715      35.997636    
     53700   2.9804844      2.2500719      0              6.7186156      34.503472    
     53800   2.9488219      2.198671       0              6.619744       33.68394     
     53900   2.9067606      2.1876434      0              6.5456553      33.913576    
     54000   2.8358185      2.2948976      0              6.5465483      34.373554    
     54100   2.9016015      2.269467       0              6.6197441      34.427324    
     54200   2.9020676      2.3207358      0              6.6717117      34.946001    
     54300   2.8500466      2.2921262      0              6.5651086      34.478418    
     54400   2.8259588      2.1980628      0              6.4349312      33.510047    
     54500   2.7938086      2.283453       0              6.4721196      34.306377    
     54600   3.0115517      2.1174344      0              6.6325562      33.051072    
     54700   2.9399882      2.2433263      0              6.6511552      34.440422    
     54800   2.9264968      2.2041851      0              6.5917869      34.068887    
     54900   2.8414269      2.236271       0              6.4963303      33.792709    
     55000   2.8149508      2.2028824      0              6.4232469      33.343288    
     55100   2.8122605      2.2382656      0              6.4545965      33.898478    
     55200   2.90684        2.2957083      0              6.6538393      34.586619    
     55300   2.9241769      2.26385        0              6.6479736      34.214309    
     55400   2.845469       2.2483937      0              6.5145131      33.968589    
     55500   2.8595815      2.1579937      0              6.4452716      33.304647    
     55600   2.8078354      2.2314713      0              6.4411678      33.690049    
     55700   2.7924527      2.2546543      0              6.4412881      34.029654    
     55800   2.7852632      2.2744822      0              6.4503371      34.332405    
     55900   2.8446252      2.2212474      0              6.4861018      33.911097    
     56000   2.8523087      2.271301       0              6.547675       34.31399     
     56100   2.8536352      2.2596026      0              6.5379653      34.003007    
     56200   2.7444763      2.2354541      0              6.3501584      33.988792    
     56300   2.7760734      2.1863664      0              6.3484432      33.494574    
     56400   2.8204525      2.2019326      0              6.4305456      33.77609     
     56500   2.8245393      2.2674673      0              6.5022076      34.274499    
     56600   2.9491503      2.1855923      0              6.6071577      33.642806    
     56700   2.8816827      2.2138245      0              6.534238       33.915453    
     56800   2.7917488      2.1639582      0              6.3495366      33.193879    
     56900   2.7248903      2.2143323      0              6.2996719      33.332587    
     57000   2.78284        2.1859633      0              6.3581852      33.489988    
     57100   2.8282774      2.2275091      0              6.4678536      34.177526    
     57200   2.8010237      2.3096999      0              6.5091839      34.712401    
     57300   2.7755682      2.144361       0              6.3056805      32.891558    
     57400   2.6893577      2.2203741      0              6.2524409      33.68746     
     57500   2.8220317      2.1180139      0              6.3489944      32.989287    
     57600   2.8291629      2.1669498      0              6.408622       33.260691    
     57700   2.7308908      2.1945315      0              6.2888676      33.165784    
     57800   2.6812788      2.107769       0              6.1277234      32.565491    
     57900   2.7442096      2.1273013      0              6.2416057      32.704671    
     58000   2.8086583      2.1363322      0              6.3472625      33.181048    
     58100   2.8092054      2.1475745      0              6.3593251      33.064173    
     58200   2.7377076      2.1358995      0              6.2404557      32.756844    
     58300   2.6552734      2.1532016      0              6.1341669      32.781057    
     58400   2.7937064      2.0682998      0              6.2568132      32.353918    
     58500   2.7943171      2.2262711      0              6.4157002      33.70629     
     58600   2.786447       2.2008245      0              6.3784543      33.4115      
     58700   2.7525258      2.0968982      0              6.2236709      32.679216    
     58800   2.6752619      2.1656051      0              6.1765385      33.015208    
     58900   2.7319289      2.1343745      0              6.2302669      32.781377    
     59000   2.7869432      2.158191       0              6.3365646      33.110562    
     59100   2.8499779      2.2274302      0              6.5003097      33.8878      
     59200   2.8902095      2.2561628      0              6.5893602      34.249251    
     59300   2.8360524      2.1025459      0              6.3545473      32.76969     
     59400   2.7010283      2.1807992      0              6.2303634      33.294099    
     59500   2.6671004      2.1643637      0              6.1630609      33.240786    
     59600   2.7203644      2.0995844      0              6.1781385      32.814473    
     59700   2.7869021      2.1033789      0              6.2816908      32.711455    
     59800   2.8130893      2.1008266      0              6.3184003      32.713018    
     59900   2.665166       2.1279362      0              6.1237332      32.701664    
     60000   2.6409972      2.0974067      0              6.0569682      32.33272     
     60100   2.6791996      2.117545       0              6.1343822      32.657075    
     60200   2.731116       2.1464115      0              6.2410851      32.948006    
     60300   2.7600071      2.089953       0              6.2279421      32.557029    
     60400   2.6531881      2.0840524      0              6.0618914      32.297715    
     60500   2.6566664      2.0552264      0              6.0382802      31.925865    
     60600   2.7299763      2.0183657      0              6.1113307      31.785271    
     60700   2.7040203      2.1234994      0              6.1775493      32.822298    
     60800   2.7182628      2.0813204      0              6.1567237      32.308292    
     60900   2.6324745      2.0590108      0              6.0057945      32.004862    
     61000   2.6355133      2.036736       0              5.9880756      31.92738     
     61100   2.691392       2.0979837      0              6.1331004      32.567875    
     61200   2.7113194      2.1343265      0              6.1993198      32.699794    
     61300   2.7040765      2.0760645      0              6.1301987      32.296119    
     61400   2.6170178      2.0989636      0              6.0225735      32.645138    
     61500   2.6666142      1.9977626      0              5.9957308      31.387621    
     61600   2.6788888      2.1022612      0              6.1186323      32.335923    
     61700   2.7244121      2.1509731      0              6.2355959      32.836078    
     61800   2.7189528      2.0729732      0              6.149411       32.301291    
     61900   2.6669625      2.0456604      0              6.0441509      32.113384    
     62000   2.6346143      2.073337       0              6.0233289      32.385144    
     62100   2.6853125      2.0002055      0              6.0262075      31.582548    
     62200   2.6269638      2.11171        0              6.0502316      32.43471     
     62300   2.6699088      2.0919331      0              6.0948408      32.336935    
     62400   2.6474892      2.0565853      0              6.0258801      31.935535    
     62500   2.5811294      2.0248934      0              5.894697       31.522262    
     62600   2.5989984      1.9921684      0              5.8887625      31.311335    
     62700   2.6308877      2.0910202      0              6.0354248      32.401536    
     62800   2.6498277      2.1127583      0              6.085559       32.811483    
     62900   2.6607073      2.0319035      0              6.0210157      31.75243     
     63000   2.612272       2.0324354      0              5.9489301      31.643799    
     63100   2.5646516      2.0730106      0              5.9181097      32.041433    
     63200   2.5784047      2.1303518      0              5.9960704      32.444575    
     63300   2.6722967      2.126961       0              6.1334487      32.816197    
     63400   2.6249826      2.1314619      0              6.0670132      32.950056    
     63500   2.5830057      2.0438473      0              5.916464       31.766257    
     63600   2.5848712      2.0161938      0              5.8916074      31.590993    
     63700   2.6292293      1.9977874      0              5.9397056      31.55979     
     63800   2.6831401      2.0102803      0              6.0330253      31.653642    
     63900   2.6285454      2.0959015      0              6.0367944      32.400943    
     64000   2.5126788      2.0656         0              5.8327778      31.807945    
     64100   2.5427491      1.9959276      0              5.8081889      31.152121    
     64200   2.5594668      2.0769561      0              5.9142817      32.20467     
     64300   2.6279541      2.0439841      0              5.9839905      31.838322    
     64400   2.5744832      2.1052229      0              5.965062       32.606017    
     64500   2.5378125      1.9977755      0              5.8026355      31.170263    
     64600   2.5196206      1.9277291      0              5.7053146      30.697009    
     64700   2.5958147      1.9108598      0              5.8026807      30.396303    
     64800   2.5620949      2.0624348      0              5.9037006      31.992291    
     64900   2.6108923      2.0074568      0              5.921883       31.41544     
     65000   2.5873203      1.968414       0              5.8474994      31.275887    
     65100   2.5179041      1.9975236      0              5.7725356      31.329001    
     65200   2.5569732      1.9509038      0              5.7844908      31.114526    
     65300   2.4966976      2.0596773      0              5.8028951      31.704231    
     65400   2.5512058      1.9855608      0              5.8105009      31.289148    
     65500   2.603516       1.9069773      0              5.8103444      30.540241    
     65600   2.5513751      1.9399818      0              5.7651757      30.662734    
     65700   2.5311465      1.9295972      0              5.7244631      30.638155    
     65800   2.4697163      2.0455101      0              5.7482758      31.696611    
     65900   2.5628647      2.0149535      0              5.8573735      31.305634    
     66000   2.5744901      2.062229       0              5.9220786      32.228255    
     66100   2.5980326      1.8877769      0              5.782923       30.254625    
     66200   2.4611633      1.964947       0              5.6548893      30.792955    
     66300   2.5595379      1.8827797      0              5.720212       30.033165    
     66400   2.5743199      1.9517396      0              5.811334       30.732904    
     66500   2.5700712      1.9566498      0              5.8098742      30.734632    
     66600   2.4690663      1.9334265      0              5.6352176      30.600776    
     66700   2.4465538      1.9136265      0              5.5816653      30.473177    
     66800   2.4809042      1.9194735      0              5.6390128      30.295957    
     66900   2.4785592      1.9990093      0              5.7150327      30.929624    
     67000   2.5003916      1.9976437      0              5.7463998      31.133422    
     67100   2.4401415      2.0525596      0              5.7109846      31.770928    
     67200   2.5002302      1.7945631      0              5.5430772      29.183563    
     67300   2.3721275      1.9537995      0              5.5102533      30.616698    
     67400   2.4662927      1.944084       0              5.6417167      30.980566    
     67500   2.5100368      1.9198463      0              5.6830631      30.534351    
     67600   2.507948       1.9134717      0              5.6735568      30.284534    
     67700   2.4905362      1.8921082      0              5.6260884      30.19471     
     67800   2.4355655      1.8651647      0              5.516729       29.806993    
     67900   2.4216459      1.8478748      0              5.4785699      29.59506     
     68000   2.4812871      1.9282735      0              5.6483868      30.643199    
     68100   2.4674764      2.0165351      0              5.7159426      31.41189     
     68200   2.5052492      1.9095854      0              5.6656242      30.37537     
     68300   2.4398563      1.898697       0              5.5566945      30.303318    
     68400   2.4354958      1.9065217      0              5.5579816      30.081427    
     68500   2.4805771      1.897745       0              5.6167938      30.238928    
     68600   2.5152252      1.8528203      0              5.6238159      29.942635    
     68700   2.4964878      1.8417576      0              5.5846608      29.712752    
     68800   2.5263055      1.7904987      0              5.5781066      29.260346    
     68900   2.4404509      1.938812       0              5.597701       30.759416    
     69000   2.4713632      1.9682482      0              5.6734828      30.907415    
     69100   2.5102907      1.8507534      0              5.6143509      29.926032    
     69200   2.4212063      1.827542       0              5.4575781      29.577916    
     69300   2.4234928      1.8367029      0              5.4701671      29.758982    
     69400   2.4770062      1.8628063      0              5.5765014      29.917123    
     69500   2.5144485      1.84661        0              5.6164411      29.800585    
     69600   2.4700214      1.8552773      0              5.5585003      29.692401    
     69700   2.4151529      1.8839442      0              5.5049046      30.052137    
     69800   2.3639547      1.9650237      0              5.5092244      30.87927     
     69900   2.4246175      1.9020602      0              5.5372107      30.481936    
     70000   2.4348059      1.948995       0              5.5994206      30.776948    
     70100   2.4464417      1.9433971      0              5.6112678      30.720267    
     70200   2.409161       1.8473829      0              5.4593599      29.621932    
     70300   2.3892575      1.7937306      0              5.3758669      29.028805    
     70400   2.3524197      1.8513027      0              5.3782092      29.692093    
     70500   2.4483149      1.8412598      0              5.5119389      29.616356    
     70600   2.4070912      1.9816173      0              5.5904911      31.042505    
     70700   2.4740203      1.8320845      0              5.5413029      29.81137     
     70800   2.4399638      1.8009149      0              5.4590734      29.182611    
     70900   2.3363091      1.877356       0              5.3801084      29.686024    
     71000   2.3488987      1.860983       0              5.3826107      29.843016    
     71100   2.4850684      1.7921437      0              5.5179262      29.385315    
     71200   2.4720115      1.9247349      0              5.6309416      30.428212    
     71300   2.4132591      1.9087802      0              5.5269012      30.21599     
     71400   2.3850038      1.8755099      0              5.4512687      30.126871    
     71500   2.3437456      1.8642118      0              5.3781136      29.769861    
     71600   2.3494526      1.7919114      0              5.3143695      29.075845    
     71700   2.3639963      1.7419895      0              5.2862525      28.644856    
     71800   2.3815903      1.8415277      0              5.4121688      29.842291    
     71900   2.4262495      1.8756066      0              5.5132039      29.87467     
     72000   2.3775679      1.8661647      0              5.4307752      29.752936    
     72100   2.329587       1.8508343      0              5.3435085      29.848948    
     72200   2.3030644      1.8814344      0              5.3343442      30.12621     
     72300   2.3802272      1.793211       0              5.3618085      29.112179    
     72400   2.387381       1.7890292      0              5.368352       29.079015    
     72500   2.3569376      1.7709796      0              5.3046597      28.680581    
     72600   2.3131338      1.7324769      0              5.2004834      28.238026    
     72700   2.3140761      1.7360011      0              5.2054204      28.399932    
     72800   2.3774856      1.7904981      0              5.3549851      29.02937     
     72900   2.4087214      1.7695701      0              5.380888       28.729361    
     73000   2.3685435      1.7555318      0              5.3066123      28.744723    
     73100   2.2829703      1.805814       0              5.2285973      29.25361     
     73200   2.3478725      1.7132048      0              5.233294       28.203011    
     73300   2.2711847      1.8781329      0              5.2832465      29.789343    
     73400   2.4090607      1.8716214      0              5.4834481      29.956179    
     73500   2.3628144      1.8638865      0              5.4063775      29.799035    
     73600   2.2777972      1.8613466      0              5.2763741      29.822741    
     73700   2.30815        1.7713424      0              5.231877       28.931401    
     73800   2.2639587      1.7834731      0              5.177753       28.915435    
     73900   2.2720322      1.7489945      0              5.1553787      28.612288    
     74000   2.3198946      1.8007716      0              5.2789144      29.166236    
     74100   2.3210147      1.8795176      0              5.3593397      29.71432     
     74200   2.3244746      1.7886507      0              5.2736601      28.991405    
     74300   2.2912716      1.7389817      0              5.174211       28.352596    
     74400   2.271807       1.7758129      0              5.1818596      29.024046    
     74500   2.2794998      1.8021499      0              5.2197301      29.044948    
     74600   2.299438       1.8001636      0              5.2476364      29.109893    
     74700   2.3044711      1.7093539      0              5.1643727      28.168206    
     74800   2.2475508      1.7051406      0              5.0748207      28.054003    
     74900   2.2546186      1.7542223      0              5.1344989      28.558035    
     75000   2.2788357      1.8269808      0              5.2435652      29.239317    
     75100   2.2902757      1.8281038      0              5.2618399      29.323682    
     75200   2.2427529      1.6978085      0              5.0602953      27.900766    
     75300   2.260706       1.6455438      0              5.0349469      27.366999    
     75400   2.2347185      1.7785535      0              5.1289945      28.583827    
     75500   2.2689942      1.798935       0              5.2007644      28.889997    
     75600   2.2551872      1.7676945      0              5.1488236      28.7598      
     75700   2.2216204      1.7055909      0              5.0363944      28.046784    
     75800   2.215205       1.683949       0              5.005134       27.744012    
     75900   2.269186       1.7729639      0              5.1750808      28.891918    
     76000   2.3090022      1.7785105      0              5.2403227      28.728056    
     76100   2.2448023      1.7581471      0              5.1237064      28.515479    
     76200   2.2186945      1.7159916      0              5.0424084      28.070681    
     76300   2.2391489      1.6924509      0              5.0495342      27.962278    
     76400   2.3379946      1.6369271      0              5.1422066      27.281857    
     76500   2.295096       1.7812148      0              5.2221778      28.856184    
     76600   2.2790781      1.6730274      0              5.0899753      27.940317    
     76700   2.2009028      1.6853305      0              4.9850727      27.903309    
     76800   2.2155812      1.683191       0              5.0049401      27.951481    
     76900   2.2259898      1.7503022      0              5.0876565      28.414295    
     77000   2.2501204      1.7637884      0              5.137321       28.553825    
     77100   2.2266042      1.7710832      0              5.1093587      28.81887     
     77200   2.1882821      1.6748102      0              4.9556307      27.694413    
     77300   2.2246349      1.6034926      0              4.9388155      27.123364    
     77400   2.1804187      1.7500142      0              5.0190454      28.45929     
     77500   2.2273584      1.7465317      0              5.0859379      28.678145    
     77600   2.1659303      1.735914       0              4.9832231      28.29051     
     77700   2.097786       1.7309819      0              4.8761245      28.108731    
     77800   2.1822033      1.6741967      0              4.9459033      27.965594    
     77900   2.225939       1.7029272      0              5.0402054      28.024819    
     78000   2.2190801      1.7056169      0              5.0326117      27.997246    
     78100   2.1623825      1.6669232      0              4.9089132      27.708718    
     78200   2.1494681      1.6333766      0              4.8560045      27.167432    
     78300   2.1274534      1.7063492      0              4.8959712      27.914288    
     78400   2.1684541      1.6777201      0              4.9288129      27.524432    
     78500   2.1664363      1.6798815      0              4.9279492      27.698624    
     78600   2.1580969      1.6359041      0              4.8714688      27.07017     
     78700   2.0667545      1.6721436      0              4.7707616      27.753209    
     78800   2.1710226      1.5927077      0              4.8476516      26.690027    
     78900   2.1804691      1.6581499      0              4.9272565      27.57748     
     79000   2.2341715      1.586299       0              4.9359198      26.834359    
     79100   2.1305404      1.6117163      0              4.8059665      26.993468    
     79200   2.0784554      1.591299       0              4.7074598      26.663284    
     79300   2.1465629      1.5879581      0              4.8062302      26.679773    
     79400   2.1248432      1.6972134      0              4.882922       27.834798    
     79500   2.1584643      1.6706995      0              4.9068151      27.522599    
     79600   2.1264737      1.649416       0              4.8375692      27.34165     
     79700   2.0950273      1.5682852      0              4.7092918      26.501647    
     79800   2.0631768      1.608217       0              4.701471       26.86274     
     79900   2.1613869      1.6239405      0              4.8644379      27.17557     
     80000   2.1303371      1.6698804      0              4.8638258      27.563259    
     80100   2.1127859      1.6224088      0              4.7900402      27.121594    
     80200   2.1006258      1.5921512      0              4.7415514      26.753412    
     80300   2.1070605      1.5985444      0              4.7575919      26.808072    
     80400   2.1446141      1.6802553      0              4.8956056      27.634831    
     80500   2.1666639      1.6684097      0              4.9168186      27.507677    
     80600   2.155021       1.5805977      0              4.8115509      26.599646    
     80700   2.1000078      1.6051835      0              4.7536571      26.821787    
     80800   2.0536241      1.668067       0              4.746999       27.483202    
     80900   2.08326        1.6555674      0              4.7789316      27.473771    
     81000   2.1292891      1.673645       0              4.8660191      27.511249    
     81100   2.1515303      1.6857876      0              4.9115072      27.690063    
     81200   2.0798861      1.6373323      0              4.7556382      27.18696     
     81300   2.0634044      1.6100244      0              4.7036197      26.897558    
     81400   2.1387052      1.513318       0              4.7198093      26.104477    
     81500   2.074541       1.6093118      0              4.7196038      26.863021    
     81600   2.0652431      1.6048773      0              4.7012294      26.64562     
     81700   2.1045617      1.507863       0              4.663164       25.764673    
     81800   2.0117489      1.6147699      0              4.6309199      26.907376    
     81900   2.0703201      1.6150013      0              4.7189651      26.651373    
     82000   2.090195       1.6520214      0              4.7857831      27.285563    
     82100   2.0638355      1.6146553      0              4.708897       26.757331    
     82200   2.033636       1.5809247      0              4.6298892      26.518091    
     82300   2.055084       1.5724417      0              4.6535626      26.506866    
     82400   2.0833729      1.5657696      0              4.6893031      26.428504    
     82500   2.0291018      1.6142521      0              4.6564186      26.757677    
     82600   1.9976395      1.5528689      0              4.5478651      26.356472    
     82700   2.0008311      1.5118107      0              4.511592       25.928654    
     82800   2.0427418      1.585431       0              4.6480476      26.454164    
     82900   2.1112549      1.5325822      0              4.6979183      26.069383    
     83000   2.0481988      1.5780278      0              4.6488258      26.526424    
     83100   2.0429353      1.5259822      0              4.5888889      25.961306    
     83200   2.0251221      1.5112069      0              4.5474067      25.661159    
     83300   2.0184095      1.5158998      0              4.5420357      25.85785     
     83400   2.0521231      1.5415488      0              4.6182304      26.208901    
     83500   2.0375031      1.6331712      0              4.6879335      26.960604    
     83600   2.0604336      1.5754118      0              4.664553       26.76963     
     83700   2.0306465      1.5062109      0              4.5506934      25.795555    
     83800   2.0133782      1.4794738      0              4.4980664      25.362747    
     83900   2.0299385      1.4808873      0              4.5243083      25.274588    
     84000   2.0389453      1.4908572      0              4.5477818      25.613998    
     84100   1.9926085      1.5540671      0              4.5415204      26.263083    
     84200   2.0084843      1.5310773      0              4.5423328      25.728031    
     84300   2.0009562      1.5427343      0              4.542703       26.198851    
     84400   2.0216307      1.5167965      0              4.5477618      25.717412    
     84500   1.9727993      1.5284844      0              4.4862384      25.937017    
     84600   1.9725337      1.4486047      0              4.4059605      25.014639    
     84700   1.9443439      1.5175175      0              4.4326093      25.597713    
     84800   1.9823531      1.5683816      0              4.5404594      26.205999    
     84900   2.0211881      1.5453434      0              4.5756451      26.114681    
     85000   2.0157731      1.4876721      0              4.5098554      25.723326    
     85100   1.9866246      1.4823998      0              4.4608816      25.283979    
     85200   1.9877689      1.4758204      0              4.4560179      25.173286    
     85300   1.9740187      1.5279848      0              4.4875671      25.812929    
     85400   2.0370306      1.4684837      0              4.5225377      25.249068    
     85500   2.0215417      1.4673646      0              4.4981965      25.238741    
     85600   1.9296091      1.4821052      0              4.3751054      25.220957    
     85700   1.9253281      1.4575403      0              4.3441223      25.030306    
     85800   1.9234045      1.548995       0              4.432693       25.984253    
     85900   1.9749776      1.5359664      0              4.4969863      25.983378    
     86000   1.9872039      1.4947422      0              4.4740926      25.541897    
     86100   1.9375275      1.5259515      0              4.4308236      25.727045    
     86200   1.9076021      1.5441402      0              4.4041462      25.901714    
     86300   1.973559       1.4098217      0              4.3687147      24.64606     
     86400   1.9035898      1.4173576      0              4.271348       24.444646    
     86500   1.854362       1.4195128      0              4.1996976      24.540815    
[...]
    128500   0.70006216     0.48097687     0              1.5305574      11.772807    
    128600   0.70824869     0.48084651     0              1.5427008      11.548725    
    128700   0.74357456     0.47926729     0              1.5940845      11.699184    
    128800   0.74331457     0.47700266     0              1.5914301      11.53156     
    128900   0.7264297      0.46736964     0              1.5564821      11.550153    
    129000   0.70053062     0.48292592     0              1.5332088      11.676291    
    129100   0.70540724     0.45515655     0              1.5127508      11.28019     
    129200   0.69142047     0.4605467      0              1.497171       11.252583    
    129300   0.68382014     0.47963174     0              1.5048611      11.38068     
    129400   0.71077223     0.47925802     0              1.5448958      11.557643    
    129500   0.7032049      0.48455714     0              1.5388495      11.650757    
    129600   0.70318556     0.44033231     0              1.4945956      11.081379    
    129700   0.69599537     0.44036012     0              1.4838434      10.86777     
    129800   0.6835717      0.45316833     0              1.4780252      11.211401    
    129900   0.68166693     0.45791374     0              1.4799149      11.129291    
    130000   0.69007714     0.43127156     0              1.4658818      10.807532    
    130100   0.6596394      0.44275208     0              1.431728       10.922844    
    130200   0.66578634     0.43495317     0              1.433145       10.899351    
    130300   0.68988439     0.43384309     0              1.4681644      10.855377    
    130400   0.67665109     0.46225633     0              1.4767374      11.257424    
    130500   0.64833252     0.45798301     0              1.4300069      11.188605    
    130600   0.65508795     0.43914492     0              1.421297       10.837204    
    130700   0.65265241     0.44180605     0              1.4203066      10.859039    
    130800   0.66017805     0.4170979      0              1.4068814      10.507528    
    130900   0.63982146     0.42121846     0              1.380482       10.668251    
    131000   0.63734453     0.41445009     0              1.3700001      10.516428    
    131100   0.64512799     0.42549922     0              1.3927187      10.7281      
    131200   0.65996877     0.43232852     0              1.4217983      10.824102    
    131300   0.64766573     0.42233983     0              1.3933641      10.599466    
    131400   0.63244418     0.42022055     0              1.3684236      10.574053    
    131500   0.63513487     0.40969904     0              1.3619362      10.41745     
    131600   0.63682088     0.38884425     0              1.3436091      10.207824    
    131700   0.62224714     0.38649752     0              1.3194125      10.032137    
    131800   0.5858627      0.41079555     0              1.2891605      10.365778    
    131900   0.61041725     0.40178205     0              1.3169608      10.27795     
    132000   0.63024769     0.40397786     0              1.3488878      10.472989    
    132100   0.62699411     0.40755163     0              1.3475836      10.380421    
    132200   0.62323775     0.38131103     0              1.3157112      10.041287    
    132300   0.60333018     0.38896538     0              1.2935188      10.159426    
    132400   0.61211847     0.38362714     0              1.3013565      9.977896     
    132500   0.61263329     0.38812693     0              1.3066282      10.156415    
    132600   0.60906353     0.37902428     0              1.2921735      9.8907893    
    132700   0.58164338     0.37082562     0              1.2428647      9.830195     
    132800   0.60085777     0.35801444     0              1.258861       9.5381679    
    132900   0.59288877     0.39132413     0              1.280223       10.066859    
    133000   0.60871167     0.37587826     0              1.2884999      9.8084961    
    133100   0.59124404     0.36767927     0              1.2541123      9.7913787    
    133200   0.57588506     0.36818459     0              1.2315904      9.7270534    
    133300   0.58070397     0.37259481     0              1.2432255      9.8169376    
    133400   0.5946236      0.36432515     0              1.255825       9.6180051    
    133500   0.58199499     0.36121939     0              1.2337856      9.549778     
    133600   0.55262944     0.3716577      0              1.2001971      9.7989533    
    133700   0.56691153     0.35621465     0              1.2061667      9.6154306    
    133800   0.57229614     0.36172951     0              1.2197546      9.5133274    
    133900   0.58223959     0.34665089     0              1.2195838      9.2715373    
    134000   0.56303437     0.34425429     0              1.1883935      9.295455     
    134100   0.54744008     0.34123007     0              1.1619892      9.0921845    
    134200   0.54749682     0.35771726     0              1.1785615      9.4561366    
    134300   0.57137058     0.34348901     0              1.2001264      9.2925215    
    134400   0.56335821     0.3451146      0              1.1897393      9.4235017    
    134500   0.5441563      0.34699761     0              1.1628335      9.4308357    
    134600   0.5492178      0.33065162     0              1.1540761      9.1012387    
    134700   0.55151824     0.32692006     0              1.1537935      9.0302693    
    134800   0.54146035     0.34167117     0              1.1534651      9.2793391    
    134900   0.54263886     0.34181465     0              1.1553755      9.2251714    
    135000   0.53499663     0.33943095     0              1.141534       9.1598659    
    135100   0.51848901     0.33613965     0              1.1134934      9.1668257    
    135200   0.52988534     0.31470597     0              1.1091459      8.7856944    
    135300   0.52489849     0.33212123     0              1.1190845      9.0373002    
    135400   0.52065215     0.34157408     0              1.122171       9.2789092    
    135500   0.53050606     0.31909656     0              1.1144671      8.8477575    
    135600   0.52127871     0.31681185     0              1.0983481      8.7580117    
    135700   0.51003141     0.31174135     0              1.0764149      8.7718165    
    135800   0.50152057     0.31800049     0              1.069914       8.7447882    
    135900   0.51442623     0.33313369     0              1.1043963      9.0411224    
    136000   0.52521435     0.32133252     0              1.1087694      8.7558928    
    136100   0.507539       0.31338885     0              1.0743256      8.7412215    
    136200   0.50103196     0.30342984     0              1.0546108      8.5539767    
    136300   0.50488979     0.28575432     0              1.0427192      8.1430463    
    136400   0.49831186     0.28795512     0              1.0350579      8.3215022    
    136500   0.4902999      0.28923152     0              1.0243223      8.2730284    
    136600   0.48085329     0.28621384     0              1.0071416      8.2200865    
    136700   0.47859018     0.2850329      0              1.0025676      8.12757      
    136800   0.49084271     0.29089416     0              1.0267987      8.3620122    
    136900   0.48841205     0.3032352      0              1.0354955      8.4350784    
    137000   0.47477152     0.29085127     0              1.0026608      8.2212602    
    137100   0.46870753     0.28400064     0              0.98671865     8.151191     
    137200   0.47217213     0.27397576     0              0.98188812     7.9214325    
    137300   0.47913053     0.25883362     0              0.97717849     7.6720592    
    137400   0.4666989      0.2701225      0              0.96982903     7.8600721    
    137500   0.45265988     0.28290558     0              0.96156386     8.0787359    
    137600   0.46684283     0.26644537     0              0.96636769     7.7248371    
    137700   0.4644262      0.28067983     0              0.97697897     8.0059768    
    137800   0.47609648     0.25265136     0              0.96644738     7.5983574    
    137900   0.45373532     0.25433041     0              0.93460107     7.6034569    
    138000   0.43909277     0.27291435     0              0.93123191     7.7981857    
    138100   0.45266342     0.26009004     0              0.93875363     7.6467574    
    138200   0.44531632     0.26315047     0              0.93079878     7.7109055    
    138300   0.43314215     0.25275295     0              0.90214893     7.5019552    
    138400   0.42843349     0.25594914     0              0.89828558     7.5403525    
    138500   0.43620624     0.25326457     0              0.90725445     7.5058417    
    138600   0.43499645     0.26867456     0              0.92085064     7.9014085    
    138700   0.44281442     0.25798659     0              0.9218839      7.668095     
    138800   0.42988132     0.24642715     0              0.89093428     7.4772106    
    138900   0.42349456     0.23862781     0              0.87355948     7.232525     
    139000   0.41001558     0.24909854     0              0.86382161     7.5012263    
    139100   0.4115594      0.24027794     0              0.8573156      7.2181638    
    139200   0.41005574     0.24224074     0              0.85702401     7.2611459    
    139300   0.4210897      0.22568138     0              0.85700753     6.9903833    
    139400   0.40703903     0.23449277     0              0.84475319     7.1819786    
    139500   0.3966125      0.23497017     0              0.82959843     7.1595607    
    139600   0.39789887     0.23157831     0              0.82813519     7.0447569    
    139700   0.39814581     0.24197351     0              0.83890061     7.2693171    
    139800   0.40760481     0.23431638     0              0.84542506     7.1603277    
    139900   0.39238382     0.23320347     0              0.82149182     7.0774753    
    140000   0.3941387      0.21401175     0              0.80493112     6.7419935    
    140100   0.38179064     0.22652505     0              0.79893137     6.9026144    
    140200   0.38982801     0.20872042     0              0.79317692     6.5955759    
    140300   0.37805967     0.20496761     0              0.77178022     6.4881808    
    140400   0.37253959     0.20472256     0              0.76325909     6.540946     
    140500   0.37468374     0.21390109     0              0.77565227     6.7527036    
    140600   0.39814023     0.20514382     0              0.80206255     6.5682705    
    140700   0.37973514     0.21750525     0              0.78682983     6.8792936    
    140800   0.37232185     0.20960169     0              0.76781177     6.6454747    
    140900   0.36756507     0.20015661     0              0.75123501     6.3531921    
    141000   0.35348917     0.20706076     0              0.73703561     6.5524265    
    141100   0.35791315     0.19666049     0              0.73326806     6.4170561    
    141200   0.36041837     0.19529883     0              0.73566241     6.3843568    
    141300   0.35688847     0.2018253      0              0.7368966      6.3776535    
    141400   0.35081914     0.18889618     0              0.71486794     6.1713388    
    141500   0.34202389     0.18993825     0              0.70272357     6.227981     
    141600   0.34235246     0.19231404     0              0.70559199     6.1478973    
    141700   0.34376547     0.19561922     0              0.71101564     6.2829679    
    141800   0.33952868     0.18329973     0              0.69234406     6.0568086    
    141900   0.33023358     0.1820612      0              0.67716971     6.0317422    
    142000   0.33083793     0.1799008      0              0.67591539     5.9614812    
    142100   0.33199434     0.17983348     0              0.67758183     5.9663993    
    142200   0.33210548     0.17331113     0              0.67122611     5.8898012    
    142300   0.31718259     0.1769602      0              0.65250177     5.899465     
    142400   0.31858032     0.17025547     0              0.64789262     5.8098828    
    142500   0.3213917      0.1722537      0              0.65410585     5.7546666    
    142600   0.32458799     0.18039776     0              0.66704201     5.9717238    
    142700   0.3203871      0.16829019     0              0.64863617     5.7755163    
    142800   0.31236495     0.16258435     0              0.63090299     5.538986     
    142900   0.3106522      0.15663991     0              0.62239068     5.5800723    
    143000   0.3004136      0.16395181     0              0.61435218     5.6239145    
    143100   0.30136651     0.15586294     0              0.60769199     5.4784365    
    143200   0.29034327     0.16313691     0              0.59843917     5.5583542    
    143300   0.28876259     0.15029098     0              0.58322337     5.2711778    
    143400   0.28921089     0.14575312     0              0.57935763     5.1303678    
    143500   0.29021264     0.1590571      0              0.5941635      5.534242     
    143600   0.2987696      0.1561262      0              0.60406177     5.4326984    
    143700   0.29426035     0.14840561     0              0.58958062     5.2155854    
    143800   0.28412164     0.15060251     0              0.57657688     5.2744525    
    143900   0.27673551     0.14463445     0              0.55953503     5.1892083    
    144000   0.27008204     0.14317958     0              0.54810482     5.1003988    
    144100   0.26796324     0.14273974     0              0.54448835     5.0947816    
    144200   0.26866025     0.13928104     0              0.54207463     5.0208183    
    144300   0.26135086     0.13897398     0              0.53080885     5.0679847    
    144400   0.25506706     0.13714059     0              0.51955436     4.9780207    
    144500   0.25938148     0.13152616     0              0.52040841     4.9142673    
    144600   0.26430195     0.13765904     0              0.53391839     5.0905325    
    144700   0.26376947     0.13946725     0              0.53492826     5.0597882    
    144800   0.25999469     0.12484719     0              0.51464879     4.6921094    
    144900   0.2526238      0.12349215     0              0.50224282     4.6888061    
    145000   0.24268777     0.12438948     0              0.48824339     4.6411817    
    145100   0.24524689     0.11564321     0              0.48333393     4.5261812    
    145200   0.23727915     0.12167808     0              0.47742302     4.6115596    
    145300   0.23275675     0.12176538     0              0.47073003     4.6226948    
    145400   0.23108522     0.11427481     0              0.46073339     4.4237658    
    145500   0.22845271     0.10926321     0              0.45177495     4.3051709    
    145600   0.2253239      0.11428299     0              0.45210381     4.4125152    
    145700   0.23532818     0.10868063     0              0.46150054     4.2762867    
    145800   0.22636649     0.11373585     0              0.45311978     4.3991621    
    145900   0.22011029     0.10882701     0              0.43883123     4.2465769    
    146000   0.21339936     0.11106633     0              0.43100907     4.3009022    
    146100   0.21478133     0.10141355     0              0.42342823     4.0662361    
    146200   0.20917544     0.10139717     0              0.41500712     4.0818846    
    146300   0.20779735     0.099708223    0              0.41125206     4.047703     
    146400   0.20172269     0.096896457    0              0.39933275     3.9731348    
    146500   0.19638418     0.093862041    0              0.38829447     3.8899729    
    146600   0.1979248      0.093565094    0              0.39030733     3.8760859    
    146700   0.19904548     0.094996       0              0.39341844     3.9568706    
    146800   0.19381932     0.094650063    0              0.38523708     3.866961     
    146900   0.18862659     0.09033152     0              0.37313325     3.7534906    
    147000   0.18488937     0.091140536    0              0.36833917     3.7987146    
    147100   0.18501357     0.08633005     0              0.36371489     3.695276     
    147200   0.18078276     0.08309817     0              0.3541399      3.6035513    
    147300   0.17869927     0.079838093    0              0.34775612     3.4861778    
    147400   0.17754615     0.079360951    0              0.34555014     3.4714404    
    147500   0.17130403     0.083935119    0              0.34076569     3.5666532    
    147600   0.16990759     0.079533862    0              0.3342708      3.4650589    
    147700   0.16904531     0.076011883    0              0.32945604     3.3547872    
    147800   0.16396079     0.077635547    0              0.32345665     3.4293956    
    147900   0.15990106     0.076048817    0              0.31578329     3.3695862    
    148000   0.16029839     0.070152779    0              0.31048296     3.1810651    
    148100   0.15355507     0.072419209    0              0.30263934     3.2656516    
    148200   0.15427696     0.06674874     0              0.29805118     3.0782298    
    148300   0.15115348     0.065462201    0              0.29208171     3.0113346    
    148400   0.14772947     0.065495217    0              0.28698122     3.0419017    
    148500   0.14604941     0.06294151     0              0.28190866     2.980416     
    148600   0.14517732     0.057733301    0              0.27539296     2.7997667    
    148700   0.13962081     0.05921167     0              0.26854063     2.8797678    
    148800   0.13678803     0.057052186    0              0.26213404     2.824283     
    148900   0.13182577     0.058325674    0              0.25596778     2.7938651    
    149000   0.13174768     0.053829122    0              0.25135414     2.6688037    
    149100   0.12849614     0.053594603    0              0.24624471     2.6559124    
    149200   0.12682272     0.050787134    0              0.24092832     2.5393775    
    149300   0.1234063      0.04968051     0              0.23469957     2.5473075    
    149400   0.11994675     0.048128235    0              0.22796051     2.5028647    
    149500   0.11501905     0.048636342    0              0.22108068     2.5248054    
    149600   0.11492648     0.042727722    0              0.21503327     2.3292814    
    149700   0.1103981      0.043568441    0              0.20908474     2.3578585    
    149800   0.10701182     0.042764433    0              0.20320379     2.2898182    
    149900   0.10509527     0.040682452    0              0.19824839     2.2663047    
    150000   0.10176679     0.040035543    0              0.19261119     2.1927071    
Loop time of 21.4546 on 1 procs for 100000 steps with 2048 atoms

Performance: 805423.478 tau/day, 4661.015 timesteps/s, 9.546 Matom-step/s
99.2% CPU use with 1 MPI tasks x 1 OpenMP threads

MPI task timing breakdown:
Section |  min time  |  avg time  |  max time  |%varavg| %total
---------------------------------------------------------------
Pair    | 10.476     | 10.476     | 10.476     |   0.0 | 48.83
Neigh   | 6.8518     | 6.8518     | 6.8518     |   0.0 | 31.94
Comm    | 0.8783     | 0.8783     | 0.8783     |   0.0 |  4.09
Output  | 0.13001    | 0.13001    | 0.13001    |   0.0 |  0.61
Modify  | 2.5163     | 2.5163     | 2.5163     |   0.0 | 11.73
Other   |            | 0.6022     |            |       |  2.81

Nlocal:           2048 ave        2048 max        2048 min
Histogram: 1 0 0 0 0 0 0 0 0 0
Nghost:           1586 ave        1586 max        1586 min
Histogram: 1 0 0 0 0 0 0 0 0 0
Neighs:          11582 ave       11582 max       11582 min
Histogram: 1 0 0 0 0 0 0 0 0 0

Total # of neighbors = 11582
Ave neighs/atom = 5.6552734
Neighbor list builds = 6355
Dangerous builds = 0
Total wall time: 0:00:34
