LAMMPS (15 Sep 2022)
OMP_NUM_THREADS environment is not set. Defaulting to 1 thread. (src/comm.cpp:98)
  using 1 OpenMP thread(s) per MPI task
# 3d WCA system, random initial configuration

#variable density equal 0.5
variable initial_temperature equal 3.0
variable final_temperature equal 0.1
variable dt equal 0.002
variable tau equal 100*${dt}
variable tau equal 100*0.002
variable thermo_time equal 50000*${dt}
variable thermo_time equal 50000*0.002
variable equil_steps equal 50000
variable run_steps equal 100000

units           lj
atom_style      atomic
dimension       3

lattice         fcc ${density}
lattice         fcc 1.2
Lattice spacing in x,y,z = 1.4938016 1.4938016 1.4938016
region          box block 0 8 0 8 0 8
# number of atom types
create_box      1 box
Created orthogonal box = (0 0 0) to (11.950413 11.950413 11.950413)
  1 by 1 by 1 MPI processor grid
create_atoms    1 box
Created 2048 atoms
  using lattice units in orthogonal box = (0 0 0) to (11.950413 11.950413 11.950413)
  create_atoms CPU = 0.000 seconds
mass 1 1.0

velocity all create ${initial_temperature} 12345
velocity all create 3 12345

pair_style      lj/cut 1.0
#type_1 type_2 epsilon sigma cutoff
pair_coeff      1 1 10.0 0.89089871814 1.0
pair_modify shift yes

timestep ${dt}
timestep 0.002
thermo ${thermo_time}
thermo 100

fix 1 all nvt temp ${initial_temperature} ${initial_temperature} ${tau}
fix 1 all nvt temp 3 ${initial_temperature} ${tau}
fix 1 all nvt temp 3 3 ${tau}
fix 1 all nvt temp 3 3 0.2
run ${equil_steps}
run 50000
Generated 0 of 0 mixed pair_coeff terms from geometric mixing rule
Neighbor list info ...
  update: every = 1 steps, delay = 0 steps, check = yes
  max neighbors/atom: 2000, page size: 100000
  master list distance cutoff = 1.3
  ghost atom cutoff = 1.3
  binsize = 0.65, bins = 19 19 19
  1 neighbor lists, perpetual/occasional/extra = 1 0 0
  (1) pair lj/cut, perpetual
      attributes: half, newton on
      pair build: half/bin/atomonly/newton
      stencil: half/bin/3d
      bin: standard
Per MPI rank memory allocation (min/avg/max) = 3.162 | 3.162 | 3.162 Mbytes
   Step          Temp          E_pair         E_mol          TotEng         Press     
         0   3              0              0              4.4978027      3.5982422    
       100   2.2476147      1.4733831      0              4.8431589      28.372705    
       200   2.475991       1.7095296      0              5.4217026      31.531885    
       300   2.7144236      1.9521209      0              6.0217681      34.588107    
       400   2.9181013      2.175954       0              6.5509687      37.083031    
       500   3.102687       2.2399363      0              6.8916943      38.19471     
       600   3.096916       2.2889262      0              6.932032       38.878122    
       700   3.0442742      2.1001222      0              6.6643038      36.608949    
       800   2.9015058      2.0967757      0              6.4469093      36.341908    
       900   2.9243076      2.1409447      0              6.5252642      36.683508    
      1000   3.0641139      2.1429964      0              6.736923       36.830892    
      1100   3.01303        2.3054289      0              6.8227671      38.578905    
      1200   3.0352143      2.166898       0              6.7174964      36.983718    
      1300   2.8564218      2.2416876      0              6.5242281      37.996798    
      1400   2.9804047      2.0609007      0              6.5293248      35.825602    
      1500   3.0531395      2.0964231      0              6.6738961      36.666341    
      1600   3.0415162      2.2283285      0              6.7883752      37.914733    
      1700   3.03228        2.1985459      0              6.744745       37.325177    
      1800   2.9729419      2.1435417      0              6.6007772      36.958393    
      1900   2.9355349      2.1338192      0              6.5349715      36.785808    
      2000   2.9978527      2.1311211      0              6.6257045      36.588598    
      2100   3.0408554      2.194089       0              6.7531448      37.316275    
      2200   3.0577636      2.1726226      0              6.7570284      37.24846     
      2300   3.0773166      2.034611       0              6.648332       35.858856    
      2400   2.9318418      2.1610359      0              6.5566512      37.000687    
      2500   2.988478       2.1147617      0              6.5952899      36.757351    
      2600   3.0217416      2.1944005      0              6.7247997      37.44772     
      2700   3.0465665      2.2172607      0              6.784879       37.951905    
      2800   2.9896521      2.1345053      0              6.6167938      37.037492    
      2900   2.9475621      2.0715511      0              6.4907354      36.040201    
      3000   2.9327033      2.190803       0              6.5877101      37.529993    
      3100   3.0069139      2.2045513      0              6.7127198      37.912565    
      3200   3.0054668      2.2221771      0              6.728176       38.026598    
      3300   3.0182915      2.1545673      0              6.6797939      37.034859    
      3400   2.9040448      2.1709607      0              6.524901       36.975263    
      3500   2.9051471      2.0538567      0              6.4094496      35.685619    
      3600   2.9370737      2.1675365      0              6.5709959      36.904521    
      3700   2.9601736      2.2227497      0              6.6608421      37.86257     
      3800   3.0007482      2.1963175      0              6.695242       37.643646    
      3900   3.0021781      2.1439308      0              6.6449991      36.864915    
      4000   2.921079       2.1753974      0              6.5548765      36.945757    
      4100   2.9099843      2.1101729      0              6.473018       36.367807    
      4200   2.9738248      2.1352986      0              6.5938576      36.85148     
      4300   3.0432804      2.200976       0              6.7636676      37.348638    
      4400   3.0770764      2.1407123      0              6.7540732      37.238694    
      4500   3.0188061      2.1081618      0              6.6341598      36.455501    
      4600   2.995226       2.0464108      0              6.537056       35.710899    
      4700   2.9529334      2.1390052      0              6.5662425      36.995301    
      4800   3.0638818      2.0378237      0              6.6314024      36.053178    
      4900   2.9996805      2.1935833      0              6.690907       37.449385    
      5000   3.0490074      2.1729222      0              6.7442002      37.246139    
      5100   3.0092558      2.1870175      0              6.6986971      37.193549    
      5200   2.9575867      2.0941951      0              6.528409       36.116653    
      5300   2.9515398      2.0792154      0              6.5043633      36.223346    
      5400   3.0225603      2.1458997      0              6.6775263      37.104068    
      5500   3.0473011      2.1595588      0              6.7282785      36.860723    
      5600   2.9637742      2.2262199      0              6.6697105      37.725935    
      5700   2.9587639      2.1682187      0              6.6041975      37.157723    
      5800   2.9084789      2.1321199      0              6.492708       36.732299    
      5900   2.956843       2.0008163      0              6.4339151      35.611039    
      6000   3.0139655      2.1062539      0              6.6249947      36.757197    
      6100   3.0080932      2.2310854      0              6.741022       37.697147    
      6200   3.0585251      2.1273207      0              6.7128682      36.651778    
      6300   2.9386152      2.1557379      0              6.5615084      36.872964    
      6400   2.9402028      2.1245331      0              6.5326838      36.60243     
      6500   2.9998889      2.161152       0              6.6587882      37.041293    
      6600   3.070497       2.1952348      0              6.7987314      37.749822    
      6700   3.0713796      2.1311304      0              6.7359502      36.583582    
      6800   2.9893261      2.1158946      0              6.5976943      36.668322    
      6900   2.9680971      2.0992085      0              6.5491803      36.307465    
      7000   2.9684732      2.1803685      0              6.6309041      37.369058    
      7100   3.1267185      2.1291977      0              6.8169853      36.921694    
      7200   3.0325463      2.2621218      0              6.8087201      38.280771    
      7300   3.0100647      2.1833722      0              6.6962647      37.12074     
      7400   3.0164949      2.1188918      0              6.6414247      36.836493    
      7500   2.9597825      2.1910451      0              6.6285511      37.429512    
      7600   3.0003865      2.1824586      0              6.6808407      36.930192    
      7700   3.0592581      2.1922207      0              6.7788671      37.108599    
      7800   3.060377       2.1972024      0              6.7855263      37.429463    
      7900   2.9920786      2.1186662      0              6.6045925      36.912454    
      8000   2.9613356      2.0979203      0              6.5377548      36.770697    
      8100   3.0063375      2.1280268      0              6.6353312      36.931221    
      8200   3.0682423      2.1452666      0              6.7453828      36.828858    
      8300   3.0422154      2.1787379      0              6.7398327      37.478097    
      8400   3.0223365      2.1745284      0              6.7058195      37.301008    
      8500   2.9792696      2.1687471      0              6.6354694      37.047149    
      8600   2.8907265      2.2281665      0              6.5621391      37.728202    
      8700   2.9865826      2.1548044      0              6.6324909      36.78296     
      8800   3.0768818      2.2239225      0              6.8369917      38.136458    
      8900   3.0602314      2.2369979      0              6.8251037      37.880047    
      9000   3.0361742      2.1178023      0              6.6698399      36.79973     
      9100   2.9830626      2.1379141      0              6.6103231      36.79916     
      9200   3.0141036      2.1056568      0              6.6246047      36.54473     
      9300   3.0463074      2.1148812      0              6.6821112      37.017049    
      9400   3.0676631      2.2339463      0              6.8331941      37.94839     
      9500   3.1344956      2.2398117      0              6.9392592      38.178466    
      9600   3.0893938      2.0669839      0              6.6988119      36.055538    
      9700   2.9622641      2.1723052      0              6.6135318      37.229865    
      9800   2.9914443      2.1580849      0              6.6430604      37.166225    
      9900   3.0354085      2.1802539      0              6.7311435      37.54042     
     10000   3.0659999      2.2037453      0              6.8004995      37.686597    
     10100   3.0642671      2.0941922      0              6.6883484      36.467041    
     10200   2.9376622      2.1253521      0              6.5296939      36.887729    
     10300   3.0430975      2.0424193      0              6.6048368      36.028982    
     10400   2.9950203      2.2184941      0              6.7088309      37.608551    
     10500   3.0916186      2.1186849      0              6.7538484      36.685342    
     10600   2.9470336      2.1732103      0              6.5916022      37.393959    
     10700   2.9624405      2.016561       0              6.458052       35.54763     
     10800   2.977496       2.1001125      0              6.5641757      36.494781    
     10900   2.9953973      2.2177199      0              6.7086219      38.008797    
     11000   3.0192042      2.2069007      0              6.7334956      37.523515    
     11100   2.9669431      2.2414803      0              6.6897219      37.877094    
     11200   2.9320551      2.1626371      0              6.5585722      37.045093    
     11300   2.8638477      2.1147078      0              6.4083818      36.367538    
     11400   2.9575494      2.1167664      0              6.5509244      36.729606    
     11500   3.0495611      2.106556       0              6.678664       36.685628    
     11600   3.0413335      2.1308326      0              6.6906052      36.846739    
     11700   2.9721744      2.204404       0              6.6604887      37.527318    
     11800   2.9423196      2.1567879      0              6.5681123      36.908935    
     11900   2.9684328      2.0797631      0              6.5302381      36.576983    
     12000   3.0238791      2.1622881      0              6.695892       36.931328    
     12100   3.0685149      2.1896172      0              6.7901421      37.714484    
     12200   3.0700546      2.1129043      0              6.7157376      36.999686    
     12300   2.9437557      2.1767024      0              6.5901799      37.339818    
     12400   2.9775058      2.1010215      0              6.5650994      36.37546     
     12500   3.0295183      2.1872863      0              6.7293448      37.365887    
     12600   3.0606918      2.2761561      0              6.8649521      38.322602    
     12700   3.041533       2.1533354      0              6.7134072      37.198852    
     12800   2.9704954      2.1299575      0              6.5835249      36.902581    
     12900   2.9767635      2.1331276      0              6.5960926      36.905322    
     13000   3.0488809      2.1567625      0              6.7278507      36.892045    
     13100   3.0567972      2.2297246      0              6.8126815      37.625935    
     13200   3.0302015      2.1632124      0              6.7062952      37.193359    
     13300   2.9719242      2.0742708      0              6.5299805      36.144742    
     13400   2.9112123      2.1774239      0              6.5421102      37.18027     
     13500   2.9778268      2.2353314      0              6.6998905      37.763128    
     13600   3.0843063      2.1406238      0              6.7648242      37.232384    
     13700   3.0343859      2.1529525      0              6.702309       36.968933    
     13800   2.9819036      2.1893873      0              6.6600587      37.392223    
     13900   2.989868       2.1762319      0              6.6588441      37.212625    
     14000   2.9677679      2.2033704      0              6.6528485      37.564842    
     14100   2.982672       2.1834048      0              6.6552282      37.507587    
     14200   2.890708       2.3000701      0              6.6340149      38.733609    
     14300   3.0300327      2.1354502      0              6.67828        36.449132    
     14400   3.0518612      2.1945417      0              6.7700982      37.817163    
     14500   3.0389616      2.1914523      0              6.7476689      37.760605    
     14600   2.9660773      2.1462355      0              6.5931789      36.846501    
     14700   2.9082064      2.1866351      0              6.5468147      37.402905    
     14800   3.021474       2.1542933      0              6.6842913      37.044674    
     14900   3.0043312      2.2639381      0              6.7682345      38.386332    
     15000   3.0263706      2.1880148      0              6.7253541      37.462358    
     15100   3.0547787      2.109348       0              6.6892787      36.449159    
     15200   3.0071026      2.1287788      0              6.6372303      36.995332    
     15300   2.9718192      2.1545834      0              6.6101356      37.110496    
     15400   3.0058691      2.1517432      0              6.6583454      37.004605    
     15500   3.0394153      2.2231517      0              6.7800485      37.883436    
     15600   3.0537617      2.1948483      0              6.7732542      37.465373    
     15700   2.9814342      2.129276       0              6.5992436      36.9122      
     15800   2.9578275      2.1246392      0              6.5592141      36.783435    
     15900   2.9212649      2.2219856      0              6.6017434      37.896669    
     16000   3.0175081      2.1588208      0              6.6828729      37.249574    
     16100   3.0041977      2.1908251      0              6.6949214      37.573159    
     16200   3.0125634      2.1552899      0              6.6719286      37.005292    
     16300   2.9140413      2.2093558      0              6.5782835      37.517784    
     16400   2.9301689      2.184958       0              6.5780652      37.16866     
     16500   3.0795984      2.1340674      0              6.7512096      36.52721     
     16600   3.0417148      2.2251507      0              6.7854951      37.927377    
     16700   2.9795645      2.1662283      0              6.6333929      36.870041    
     16800   2.9147232      2.1749718      0              6.5449217      37.416352    
     16900   3.0006034      2.1039713      0              6.6026786      36.395891    
     17000   3.0254897      2.108821       0              6.6448396      36.414893    
     17100   2.9823829      2.2051047      0              6.6764947      37.492824    
     17200   3.054733       2.1272662      0              6.7071283      36.751124    
     17300   2.985066       2.1961037      0              6.6715163      37.337191    
     17400   2.9694085      2.1178029      0              6.5697407      36.380299    
     17500   2.967793       2.0922135      0              6.5417294      36.030563    
     17600   2.9580096      2.1994571      0              6.634305       37.287868    
     17700   3.0288438      2.2472877      0              6.788335       38.00834     
     17800   3.0034934      2.2826627      0              6.785703       38.711248    
     17900   3.0206765      2.135318       0              6.6641204      36.684383    
     18000   2.9267218      2.2381729      0              6.626112       37.736918    
     18100   2.9855542      2.177432       0              6.6535766      37.231598    
     18200   3.0432785      2.1219519      0              6.6846407      36.586498    
     18300   3.0106276      2.1611814      0              6.6749178      36.94989     
     18400   2.9104613      2.2310718      0              6.5946321      37.888174    
     18500   2.9690567      2.1125558      0              6.5639663      36.649919    
     18600   3.0063111      2.15606        0              6.6633248      37.105755    
     18700   2.9485123      2.3575078      0              6.7781168      39.12421     
     18800   3.0479054      2.1811996      0              6.7508253      37.557398    
     18900   2.8890927      2.1971809      0              6.5287038      37.233449    
     19000   2.9240947      2.1178309      0              6.5018313      36.29486     
     19100   2.9721907      2.1321115      0              6.5882207      36.809276    
     19200   3.050451       2.1218396      0              6.6952819      36.728998    
     19300   3.0460371      2.1576223      0              6.724447       37.246696    
     19400   3.0394041      2.132049       0              6.6889289      36.975122    
     19500   2.9837646      2.2030108      0              6.6764723      37.481569    
     19600   2.9562415      2.234567       0              6.6667641      37.573076    
     19700   2.9876582      2.1915013      0              6.6708004      37.354443    
     19800   2.9954287      2.1686161      0              6.6595652      37.089622    
     19900   2.9842794      2.1050744      0              6.5793076      36.569063    
     20000   2.9134358      2.1222708      0              6.4902907      36.519777    
     20100   3.0236266      2.0754945      0              6.6087199      36.196426    
     20200   3.0643787      2.1547696      0              6.7490932      37.083464    
     20300   3.0174311      2.1903699      0              6.7143065      37.701914    
     20400   2.9999165      2.1384043      0              6.6360818      36.883502    
     20500   2.9815112      2.1016316      0              6.5717147      36.653116    
     20600   2.9572017      2.1781379      0              6.6117745      37.215144    
     20700   3.0139794      2.2626817      0              6.7814432      38.274679    
     20800   3.0941227      2.1754422      0              6.8143602      37.65997     
     20900   3.0427046      2.0893484      0              6.6511767      36.112973    
     21000   2.976821       2.0895619      0              6.5526131      36.305142    
     21100   2.9521117      2.1761084      0              6.6021137      36.940719    
     21200   3.0345157      2.1678912      0              6.7174421      37.395222    
     21300   3.0544036      2.2259219      0              6.8052902      37.94662     
     21400   3.1843796      2.1617795      0              6.9360166      37.451665    
     21500   3.0632208      2.2001023      0              6.7926899      37.497024    
     21600   2.980704       2.1659108      0              6.6347838      37.344608    
     21700   2.9903647      2.1423772      0              6.625734       36.858773    
     21800   3.0714497      2.078751       0              6.683676       36.452823    
     21900   3.0724676      2.1484354      0              6.7548865      36.837269    
     22000   2.998423       2.3024153      0              6.7978538      38.4746      
     22100   3.0435433      2.1198719      0              6.6829576      36.483198    
     22200   2.9919229      2.0483996      0              6.5340927      35.954939    
     22300   2.9432334      2.1739194      0              6.5866138      37.002802    
     22400   3.0884416      2.104269       0              6.7346694      36.481049    
     22500   2.9837143      2.2576742      0              6.7310602      38.263985    
     22600   2.9711247      2.2020773      0              6.6565882      37.775606    
     22700   3.0018716      2.1288714      0              6.6294802      36.91098     
     22800   3.0421774      2.0948357      0              6.6558737      36.610775    
     22900   3.0094365      2.1633334      0              6.675284       37.300439    
     23000   3.045399       2.1056497      0              6.6715177      36.278237    
     23100   2.9549827      2.230217       0              6.6605268      37.865512    
     23200   3.0515527      2.1024655      0              6.6775595      36.63857     
     23300   2.9829314      2.2297631      0              6.7019755      37.979992    
     23400   3.0196354      2.1905491      0              6.7177906      37.576992    
     23500   2.9642646      2.1899088      0              6.6341346      37.391741    
     23600   2.994248       2.0722692      0              6.5614482      36.39789     
     23700   2.9376119      2.1334638      0              6.53773        36.829105    
     23800   3.0410388      2.1565153      0              6.7158462      37.184414    
     23900   3.0621382      2.2117429      0              6.8027074      37.534977    
     24000   2.9377241      2.2989738      0              6.7034082      38.585392    
     24100   2.9790085      2.1203245      0              6.5866554      36.763945    
     24200   2.9594861      2.1624076      0              6.5994692      37.163736    
     24300   2.9621824      2.2064051      0              6.6475092      37.719549    
     24400   2.9690595      2.2370769      0              6.6884915      37.916633    
     24500   3.0350656      2.1404133      0              6.6907887      36.963024    
     24600   2.9367754      2.1830948      0              6.5861069      37.399347    
     24700   2.9278216      2.1181782      0              6.5077662      36.798716    
     24800   2.9649172      2.1753532      0              6.6205573      37.028501    
     24900   3.0052237      2.2661428      0              6.7717772      38.396784    
     25000   3.0717449      2.1530057      0              6.7583732      36.921719    
     25100   2.9913622      2.1781454      0              6.6629977      37.462641    
     25200   2.9918812      2.1331996      0              6.6188301      36.73532     
     25300   2.963066       2.1833349      0              6.6257637      37.287921    
     25400   2.9697821      2.2030243      0              6.6555223      37.467999    
     25500   3.0605222      2.1093738      0              6.6979155      36.800239    
     25600   3.0029653      2.2102813      0              6.7125298      37.58844     
     25700   3.0302439      2.0776673      0              6.6208138      36.210931    
     25800   3.0080898      2.0152145      0              6.525146       35.526232    
     25900   2.9754257      2.1235505      0              6.5845098      36.522249    
     26000   2.9911206      2.2637192      0              6.7482093      38.127802    
     26100   3.0336466      2.2108933      0              6.7591414      38.018576    
     26200   2.9731471      2.2206013      0              6.6781443      37.784904    
     26300   3.0051812      2.1282907      0              6.6338615      36.819353    
     26400   2.990829       2.166836       0              6.650889       37.309799    
     26500   3.0387827      2.1303178      0              6.6862662      36.609695    
     26600   3.0596972      2.1109884      0              6.6982931      36.460911    
     26700   2.9461319      2.1858813      0              6.6029213      37.307017    
     26800   2.8984668      2.155722       0              6.5012994      36.734286    
     26900   3.0215337      2.0393348      0              6.5694224      36.012834    
     27000   3.0450109      2.1895065      0              6.7547926      37.360129    
     27100   3.0301187      2.2099974      0              6.7529561      37.475082    
     27200   3.0077952      2.137339       0              6.6468289      37.021978    
     27300   2.9930702      2.1340105      0              6.6214236      36.659938    
     27400   3.010724       2.1248479      0              6.6387288      36.883845    
     27500   3.0002458      2.1492933      0              6.6474646      37.056045    
     27600   3.0312227      2.237244       0              6.7818579      38.093649    
     27700   3.0827554      2.2817678      0              6.903643       38.188533    
     27800   3.0452351      2.1734437      0              6.7390659      37.347301    
     27900   2.9993008      2.118313       0              6.6150675      36.561205    
     28000   2.9288956      2.2065811      0              6.5977794      37.591753    
     28100   3.0294883      2.1870917      0              6.7291053      37.522449    
     28200   3.0842558      2.1986404      0              6.8227651      37.30886     
     28300   2.9809819      2.2349187      0              6.7042082      37.670914    
     28400   2.9223194      2.1404655      0              6.5218042      36.707703    
     28500   3.0043913      2.0652878      0              6.5696743      36.16079     
     28600   3.0043779      2.1662618      0              6.6706283      37.069553    
     28700   3.0213999      2.2239354      0              6.7538224      37.918005    
     28800   3.1109285      2.1042547      0              6.7683689      36.682899    
     28900   2.9476052      2.1522164      0              6.5714654      36.87407     
     29000   2.8998566      2.1863679      0              6.5340288      37.449746    
     29100   3.0167813      2.1167128      0              6.6396752      36.497648    
     29200   3.0183173      2.1642256      0              6.6894909      36.858367    
     29300   3.0056249      2.1526167      0              6.6588527      37.178439    
     29400   3.0363336      2.0943698      0              6.6466464      36.282093    
     29500   2.9572122      2.205805       0              6.6394574      37.348318    
     29600   3.0099547      2.1472408      0              6.6599683      36.892116    
     29700   3.0058296      2.1538436      0              6.6603864      37.256123    
     29800   3.0264681      2.1425078      0              6.6799933      37.214675    
     29900   2.9636234      2.2378988      0              6.6811632      38.010699    
     30000   2.9900577      2.128547       0              6.6114435      36.745892    
     30100   3.0061099      2.0738562      0              6.5808192      36.194183    
     30200   3.0033024      2.1474578      0              6.6502117      37.184859    
     30300   3.0626621      2.1646249      0              6.7563749      37.427974    
     30400   3.0750863      2.1778652      0              6.7882425      37.770224    
     30500   2.95086        2.1936731      0              6.6178017      37.326914    
     30600   2.9630113      2.0761009      0              6.5184478      36.214012    
     30700   2.9496866      2.1588955      0              6.581265       36.832868    
     30800   3.0155399      2.1512496      0              6.6723508      37.042637    
     30900   3.0698048      2.0941718      0              6.6966305      36.454781    
     31000   2.9754279      2.2146342      0              6.6755968      37.835363    
     31100   2.8672509      2.1838401      0              6.4826164      37.17855     
     31200   2.9241827      2.0676207      0              6.4517531      35.95963     
     31300   3.0188414      2.0921957      0              6.6182467      35.969378    
     31400   3.0196709      2.2169086      0              6.7442033      37.584373    
     31500   3.0344236      2.195306       0              6.744719       37.405939    
     31600   3.0357655      2.0589972      0              6.610422       36.023208    
     31700   2.963675       2.0473578      0              6.4906996      35.847928    
     31800   2.9731996      2.1432147      0              6.6008365      37.075202    
     31900   3.0644388      2.226147       0              6.8205607      38.442036    
     32000   2.9820475      2.2653462      0              6.7362334      38.300548    
     32100   2.9420784      2.1712102      0              6.582173       37.235042    
     32200   2.959796       2.11392        0              6.5514462      36.617331    
     32300   2.9848904      2.1620389      0              6.6371883      37.181637    
     32400   3.0637064      2.2316562      0              6.8249719      38.060322    
     32500   3.0167059      2.2827971      0              6.8056464      38.625812    
     32600   3.0321875      2.1771205      0              6.7231809      37.447808    
     32700   2.9683686      2.2235989      0              6.6739778      37.988684    
     32800   3.0451954      2.0730233      0              6.638586       36.404883    
     32900   3.0023124      2.0844778      0              6.5857474      36.187163    
     33000   2.9515593      2.0577508      0              6.4829279      35.979861    
     33100   2.9059181      2.1760865      0              6.5328353      37.263163    
     33200   3.0561248      2.1416826      0              6.7236313      37.09138     
     33300   3.0259959      2.2044019      0              6.7411795      37.676191    
     33400   3.0527734      2.0696435      0              6.6465678      35.835261    
     33500   2.9144248      2.1546524      0              6.524155       36.94641     
     33600   2.9990333      2.1144293      0              6.6107827      36.354672    
     33700   3.108475       2.1817325      0              6.8421683      37.61022     
     33800   3.0535384      2.2015432      0              6.7796143      37.84994     
     33900   2.9858846      2.146942       0              6.6235819      37.006481    
     34000   2.9605019      2.1448054      0              6.5833898      36.726561    
     34100   3.000572       2.1275834      0              6.6262437      36.9724      
     34200   3.063854       2.1886956      0              6.7822325      37.683613    
     34300   3.0959878      2.2749411      0              6.9166552      38.580301    
     34400   3.0696121      2.1779085      0              6.7800784      37.589761    
     34500   3.0452745      2.1104211      0              6.6761024      36.710973    
     34600   2.961816       2.2026632      0              6.643218       37.446501    
     34700   2.9274474      2.2195911      0              6.6086181      37.715659    
     34800   3.0577333      2.0653264      0              6.6496868      36.247588    
     34900   2.9842461      2.2849449      0              6.7591283      38.588978    
     35000   3.0215728      2.2567366      0              6.7868827      38.195775    
     35100   3.0166966      2.1136044      0              6.6364399      36.495969    
     35200   2.9082213      2.1409469      0              6.5011488      36.833617    
     35300   2.9248636      2.1922098      0              6.5773629      37.050156    
     35400   3.0346035      2.1266214      0              6.6763041      36.563905    
     35500   3.0252185      2.1571296      0              6.6927415      37.346297    
     35600   2.9512662      2.2786149      0              6.7033527      38.347046    
     35700   3.024287       2.1778946      0              6.71211        37.072644    
     35800   2.9249789      2.1610802      0              6.5464062      36.884284    
     35900   2.8926527      2.1459067      0              6.482767       36.5483      
     36000   3.0382957      2.0681791      0              6.6233973      36.192667    
     36100   3.0636984      2.1413496      0              6.7346534      36.910061    
     36200   3.0801251      2.1116099      0              6.7295416      36.786774    
     36300   2.9948455      2.1167577      0              6.6068324      36.791106    
     36400   2.9243325      2.0227001      0              6.407057       35.592744    
     36500   2.917556       2.0865144      0              6.4607116      36.149614    
     36600   2.9575354      2.1335842      0              6.5677211      36.517868    
     36700   3.0253844      2.1299686      0              6.6658294      36.777104    
     36800   3.0602731      2.1627199      0              6.7508881      37.254636    
     36900   3.0243311      2.1790573      0              6.7133389      37.21253     
     37000   2.9250787      2.1559039      0              6.5413796      37.062906    
     37100   3.007665       2.0420186      0              6.5513132      36.017741    
     37200   3.0843173      2.1466952      0              6.7709121      37.252205    
     37300   3.0517239      2.2690652      0              6.8444159      38.280367    
     37400   3.0445982      2.1695228      0              6.7341901      37.301533    
     37500   2.9302847      2.2121665      0              6.6054474      37.414725    
     37600   3.0424353      2.0342459      0              6.5956705      35.778832    
     37700   2.9957396      2.1874512      0              6.6788665      37.092195    
     37800   3.0883954      2.2631863      0              6.8935173      38.321915    
     37900   3.0438137      2.2735881      0              6.8370793      38.131548    
     38000   3.033091       2.1580558      0              6.7054708      37.201747    
     38100   2.9627822      2.1816164      0              6.6236197      36.919328    
     38200   2.9325156      2.2214194      0              6.6180449      37.700394    
     38300   2.9848375      2.2571872      0              6.7322573      37.971992    
     38400   3.0737969      2.270173       0              6.878617       38.415104    
     38500   3.0471374      2.2201408      0              6.7886151      37.784599    
     38600   2.9560376      2.1587175      0              6.5906088      37.105734    
     38700   2.9754459      2.1440448      0              6.6050344      36.804398    
     38800   3.023201       2.1642828      0              6.69687        37.227629    
     38900   3.0222765      2.2288756      0              6.7600767      37.973568    
     39000   2.996123       2.2362246      0              6.7282147      37.971427    
     39100   2.9707119      2.079611       0              6.533503       36.178079    
     39200   2.951213       2.0928374      0              6.5174955      36.329468    
     39300   3.0408513      2.0804384      0              6.6394882      36.324135    
     39400   3.0574752      2.1492003      0              6.7331738      36.898836    
     39500   3.0564923      2.1587202      0              6.7412201      37.131487    
     39600   2.9980931      2.1765571      0              6.6715008      37.086243    
     39700   3.0234441      2.1026575      0              6.6356091      36.590131    
     39800   3.0168113      2.1171271      0              6.6401346      36.395485    
     39900   3.0299492      2.1283737      0              6.6710784      36.874228    
     40000   3.0110402      2.2158916      0              6.7302466      37.700574    
     40100   3.101232       2.1020903      0              6.751667       36.763751    
     40200   3.0189003      2.0894103      0              6.6155497      36.094382    
     40300   3.0046491      1.9925775      0              6.4973505      35.333423    
     40400   2.9746683      2.1081241      0              6.5679478      36.621362    
     40500   3.0900413      2.0819794      0              6.7147782      36.285284    
     40600   3.026282       2.1987918      0              6.7359982      37.77552     
     40700   2.9821436      2.2153215      0              6.6863527      37.385894    
     40800   2.9932221      2.119801       0              6.6074419      36.59417     
     40900   2.9410544      2.178757       0              6.5881845      37.232615    
     41000   3.0623453      2.1485619      0              6.7398369      37.366118    
     41100   3.1482562      2.1373013      0              6.8573797      37.10389     
     41200   3.0150818      2.2092035      0              6.7296179      37.434574    
     41300   2.9884535      2.128886       0              6.6093774      36.772056    
     41400   2.9346526      2.2078512      0              6.6076807      37.526594    
     41500   3.0208418      2.1455981      0              6.6746483      36.866545    
     41600   3.0497353      2.1979836      0              6.7703529      37.333015    
     41700   3.102368       2.2133307      0              6.8646104      37.779444    
     41800   3.026884       2.172538       0              6.7106471      37.10989     
     41900   2.9940159      2.0827803      0              6.5716113      36.207525    
     42000   3.0220344      2.061559       0              6.5923972      36.123728    
     42100   2.9763327      2.2327752      0              6.6950943      37.832516    
     42200   3.1089506      2.1755211      0              6.8366699      37.346481    
     42300   2.9869478      2.2630523      0              6.7412863      38.469826    
     42400   2.9658713      2.1098851      0              6.5565197      36.570906    
     42500   3.0212363      2.0681631      0              6.5978048      36.27243     
     42600   3.0443905      2.152891       0              6.7172469      37.171164    
     42700   3.0359833      2.2045678      0              6.7563192      37.706783    
     42800   2.9526069      2.1942139      0              6.6209618      37.504745    
     42900   2.9179667      2.1045173      0              6.4793301      36.311074    
     43000   2.9668928      2.124561       0              6.5727272      36.784199    
     43100   3.0445041      2.0946955      0              6.6592218      36.446021    
     43200   3.0077964      2.1767156      0              6.6862072      37.402345    
     43300   3.0393815      2.1303677      0              6.6872138      36.833292    
     43400   2.9478767      2.1449143      0              6.5645702      37.037231    
     43500   2.8740097      2.124497       0              6.4334066      36.531222    
     43600   2.9140131      2.1936168      0              6.5625022      37.144058    
     43700   3.0384967      2.1310802      0              6.6865998      36.720972    
     43800   3.0007115      2.1953932      0              6.6942627      37.340044    
     43900   3.0167201      2.1354553      0              6.6583259      36.836015    
     44000   3.0009059      2.0915461      0              6.590707       36.611173    
     44100   2.9706998      2.0409981      0              6.494872       35.620422    
     44200   2.9608452      2.1080656      0              6.5471648      36.434543    
     44300   2.9710796      2.2761479      0              6.7305911      38.215025    
     44400   3.0170765      2.2363753      0              6.7597803      37.90199     
     44500   3.0110506      2.166586       0              6.6809565      37.219585    
     44600   2.9785964      2.1241654      0              6.5898784      36.786389    
     44700   2.9014706      2.0856074      0              6.4356882      36.300797    
     44800   2.9324123      1.9599635      0              6.3564342      35.017319    
     44900   2.9370546      2.1601332      0              6.563564       37.069922    
     45000   3.0074445      2.1695506      0              6.6785146      37.35309     
     45100   3.1065538      2.0998825      0              6.7574378      36.354003    
     45200   3.0490698      2.1340459      0              6.7054174      36.811544    
     45300   2.9074339      2.1842957      0              6.543317       37.251136    
     45400   2.9802935      2.0778605      0              6.546118       36.188623    
     45500   2.9207841      2.2258722      0              6.6049092      37.753561    
     45600   2.9805539      2.1779441      0              6.6465919      37.024734    
     45700   2.9319438      2.2591285      0              6.6548968      38.414527    
     45800   3.052535       2.1365344      0              6.7131012      36.792703    
     45900   3.0243257      2.1655826      0              6.6998561      37.092602    
     46000   2.880585       2.2059463      0              6.5247141      37.751358    
     46100   2.8883546      2.164845       0              6.4952614      37.068133    
     46200   3.0145886      2.1570231      0              6.6766981      36.839247    
     46300   3.0121407      2.1955331      0              6.711538       37.44178     
     46400   2.965884       2.1980458      0              6.6446995      37.382028    
     46500   2.9599967      2.2144297      0              6.6522568      37.674383    
     46600   3.068082       2.2270822      0              6.8269581      38.078561    
     46700   3.1120297      2.2525621      0              6.9183273      38.351537    
     46800   2.9804133      2.2533474      0              6.7217844      38.234495    
     46900   2.9279074      2.2626614      0              6.6523781      38.038208    
     47000   3.0204555      2.0932538      0              6.6217247      36.488768    
     47100   2.967762       2.1854937      0              6.634963       37.238122    
     47200   3.0405494      2.1678968      0              6.7264939      37.107928    
     47300   3.0578411      2.2259772      0              6.8104992      38.265397    
     47400   3.1255537      2.007851       0              6.6938923      35.916679    
     47500   2.9126457      2.1749272      0              6.5417625      37.256982    
     47600   2.9442219      2.1834529      0              6.5976293      37.613294    
     47700   3.0082007      2.2033964      0              6.7134942      37.692094    
     47800   3.0479648      2.1774633      0              6.7471782      37.280872    
     47900   3.0593535      2.1009818      0              6.6877713      36.35814     
     48000   3.01504        2.1346964      0              6.655048       36.739601    
     48100   3.0498061      2.0670398      0              6.6395152      36.122793    
     48200   3.0204504      2.0891308      0              6.6175941      36.497447    
     48300   3.0389327      2.056715       0              6.6128883      36.039276    
     48400   3.0512014      2.110452       0              6.6850193      36.825107    
     48500   3.035906       2.2300882      0              6.7817236      37.920155    
     48600   3.025929       2.2008757      0              6.737553       37.631167    
     48700   3.014602       2.0297539      0              6.549449       35.809123    
     48800   2.9578627      2.0693755      0              6.5040032      36.059364    
     48900   2.9750327      2.1181571      0              6.5785271      36.572015    
     49000   2.9816923      2.192262       0              6.6626166      37.627634    
     49100   2.9857224      2.2199574      0              6.6963542      38.200037    
     49200   3.0383343      2.1431247      0              6.6984009      36.983387    
     49300   2.9031428      2.2142813      0              6.5668691      37.609528    
     49400   2.9392428      2.0376965      0              6.444408       35.841072    
     49500   2.9751323      2.1101683      0              6.5706877      36.641833    
     49600   3.0818522      2.1439209      0              6.764442       36.819819    
     49700   3.0259538      2.1968576      0              6.733572       37.534369    
     49800   2.995555       2.1279001      0              6.6190386      36.864128    
     49900   2.9278057      2.1701673      0              6.5597314      37.237354    
     50000   2.9021126      2.2600646      0              6.6111079      38.104266    
Loop time of 12.2894 on 1 procs for 50000 steps with 2048 atoms

Performance: 703044.896 tau/day, 4068.547 timesteps/s, 8.332 Matom-step/s
99.7% CPU use with 1 MPI tasks x 1 OpenMP threads

MPI task timing breakdown:
Section |  min time  |  avg time  |  max time  |%varavg| %total
---------------------------------------------------------------
Pair    | 6.0521     | 6.0521     | 6.0521     |   0.0 | 49.25
Neigh   | 4.2119     | 4.2119     | 4.2119     |   0.0 | 34.27
Comm    | 0.4447     | 0.4447     | 0.4447     |   0.0 |  3.62
Output  | 0.0068537  | 0.0068537  | 0.0068537  |   0.0 |  0.06
Modify  | 1.2553     | 1.2553     | 1.2553     |   0.0 | 10.21
Other   |            | 0.3185     |            |       |  2.59

Nlocal:           2048 ave        2048 max        2048 min
Histogram: 1 0 0 0 0 0 0 0 0 0
Nghost:           1420 ave        1420 max        1420 min
Histogram: 1 0 0 0 0 0 0 0 0 0
Neighs:          12229 ave       12229 max       12229 min
Histogram: 1 0 0 0 0 0 0 0 0 0

Total # of neighbors = 12229
Ave neighs/atom = 5.9711914
Neighbor list builds = 4635
Dangerous builds = 0

unfix 1
dump           1 all atom ${run_steps} 3dWCA_T${final_temperature}_d${density}_N${run_steps}.lammpstrj
dump           1 all atom 100000 3dWCA_T${final_temperature}_d${density}_N${run_steps}.lammpstrj
dump           1 all atom 100000 3dWCA_T0.1_d${density}_N${run_steps}.lammpstrj
dump           1 all atom 100000 3dWCA_T0.1_d1.2_N${run_steps}.lammpstrj
dump           1 all atom 100000 3dWCA_T0.1_d1.2_N100000.lammpstrj
dump           2 all dcd ${thermo_time} 3dWCA_T${final_temperature}_d${density}_N${run_steps}.dcd
dump           2 all dcd 100 3dWCA_T${final_temperature}_d${density}_N${run_steps}.dcd
dump           2 all dcd 100 3dWCA_T0.1_d${density}_N${run_steps}.dcd
dump           2 all dcd 100 3dWCA_T0.1_d1.2_N${run_steps}.dcd
dump           2 all dcd 100 3dWCA_T0.1_d1.2_N100000.dcd
fix 1 all nvt temp ${initial_temperature} ${final_temperature} ${tau}
fix 1 all nvt temp 3 ${final_temperature} ${tau}
fix 1 all nvt temp 3 0.1 ${tau}
fix 1 all nvt temp 3 0.1 0.2

run ${run_steps}
run 100000
Generated 0 of 0 mixed pair_coeff terms from geometric mixing rule
Per MPI rank memory allocation (min/avg/max) = 3.303 | 3.303 | 3.303 Mbytes
   Step          Temp          E_pair         E_mol          TotEng         Press     
     50000   2.9021126      2.2600646      0              6.6111079      38.104266    
     50100   3.0060087      2.1259078      0              6.6327192      36.863019    
     50200   3.0556227      2.2018482      0              6.7830442      37.777946    
     50300   3.1116565      2.226526       0              6.8917317      37.966281    
     50400   3.0137251      2.1698441      0              6.6882244      36.994777    
     50500   2.9625344      2.1381066      0              6.5797383      36.653205    
     50600   2.951443       2.1761451      0              6.601148       37.191609    
     50700   2.9901871      2.1671196      0              6.6502101      37.102211    
     50800   2.9632084      2.2612075      0              6.7038498      38.000922    
     50900   2.9685709      2.1770771      0              6.6277593      37.392367    
     51000   2.9276997      2.0740567      0              6.4634619      36.184962    
     51100   2.9303158      2.1018753      0              6.4952027      36.312894    
     51200   2.9784919      2.16326        0              6.6288164      36.757606    
     51300   2.9712876      2.1942659      0              6.6490211      37.40727     
     51400   2.953962       2.1857969      0              6.6145763      37.373528    
     51500   2.9490388      2.1398424      0              6.5612407      36.799868    
     51600   2.9386752      2.0612057      0              6.4670661      35.871719    
     51700   2.9062514      2.0588256      0              6.4160741      36.147937    
     51800   2.9743339      2.1134792      0              6.5728017      36.366163    
     51900   2.9881651      2.2032         0              6.6832591      37.754748    
     52000   2.9974794      2.105916       0              6.5999397      36.50926     
     52100   2.8559819      2.1702895      0              6.4521706      36.96198     
     52200   2.921001       2.0731082      0              6.4524703      36.094654    
     52300   2.8580053      2.2052854      0              6.4902001      37.662519    
     52400   2.9468122      2.1014189      0              6.5194788      36.302951    
     52500   2.9369488      2.1138862      0              6.5171583      36.717598    
     52600   2.9273539      2.1111475      0              6.5000342      36.554467    
     52700   2.865536       2.1861658      0              6.4823711      37.356322    
     52800   2.8676282      2.1189685      0              6.4183105      36.353889    
     52900   2.9181621      1.8793122      0              6.254418       33.794165    
     53000   2.8492268      2.0099936      0              6.281747       35.289281    
     53100   2.9407187      2.0498541      0              6.4587782      35.888546    
     53200   2.9158024      2.0998041      0              6.471372       36.386837    
     53300   2.9066223      2.0708468      0              6.4286513      35.728904    
     53400   2.8732399      2.0745681      0              6.3823235      35.892149    
     53500   2.811827       2.0688718      0              6.2845529      35.661262    
     53600   2.8277082      2.0051061      0              6.2445974      34.95894     
     53700   2.8995655      2.0701458      0              6.4173704      35.968308    
     53800   2.9292162      2.1232388      0              6.5149177      36.527909    
     53900   2.8984362      2.103384       0              6.4489154      36.204652    
     54000   2.9125436      1.9836998      0              6.3503819      35.149327    
     54100   2.8416907      2.0808297      0              6.3412844      35.892968    
     54200   2.8504868      2.0961827      0              6.3698251      36.481887    
     54300   2.812057       2.1787963      0              6.3948222      36.988642    
     54400   2.8670493      2.103691       0              6.402165       36.584549    
     54500   2.9017587      2.0318949      0              6.3824076      35.107739    
     54600   2.8675442      1.919248       0              6.2184642      34.254165    
     54700   2.7578672      2.0022519      0              6.1370328      35.028258    
     54800   2.8292752      2.0309755      0              6.272816       35.291426    
     54900   2.8855089      2.0157976      0              6.3419475      35.442929    
     55000   2.9007471      2.0172699      0              6.3662659      35.470312    
     55100   2.8210743      2.0630397      0              6.2925849      35.719033    
     55200   2.7471046      2.0113558      0              6.1300007      34.87104     
     55300   2.7881728      1.925927       0              6.106144       34.1825      
     55400   2.8932149      2.0247916      0              6.3624949      35.158188    
     55500   2.92898        1.9717633      0              6.3630881      34.999003    
     55600   2.8069184      2.0451745      0              6.2534964      35.327048    
     55700   2.7416992      2.0649542      0              6.1754948      35.580029    
     55800   2.8210309      2.0041426      0              6.2336227      35.272067    
     55900   2.9184977      2.0387314      0              6.4143404      35.891507    
     56000   2.927685       2.0837156      0              6.4730988      36.349929    
     56100   2.8546017      2.0474075      0              6.3272192      35.65907     
     56200   2.8909708      1.9398743      0              6.2742131      34.862298    
     56300   2.8396252      1.9721827      0              6.2295408      35.089345    
     56400   2.890116       1.8475495      0              6.1806067      33.521515    
     56500   2.8086996      1.8997388      0              6.1107311      33.993189    
     56600   2.75569        1.9261999      0              6.0577165      34.200514    
     56700   2.8283579      1.9528322      0              6.1932976      34.673887    
     56800   2.8146075      2.0833502      0              6.3032         35.968893    
     56900   2.8727726      1.9578634      0              6.2649183      34.610821    
     57000   2.833806       1.8890422      0              6.1376756      34.052712    
     57100   2.7793043      1.905299       0              6.0722198      33.968973    
     57200   2.8656375      1.9419265      0              6.2382839      34.840438    
     57300   2.8873305      2.0582484      0              6.3871294      35.791938    
     57400   2.8170022      2.0048813      0              6.2283213      35.140072    
     57500   2.7354353      1.9858024      0              6.0869518      34.839179    
     57600   2.6876526      2.0087205      0              6.0382309      34.879334    
     57700   2.8084206      1.9438993      0              6.1544732      34.382765    
     57800   2.828538       1.9904175      0              6.2311529      34.997926    
     57900   2.7918687      1.9829141      0              6.1686724      34.890877    
     58000   2.7573825      1.9781608      0              6.112215       34.960379    
     58100   2.7589446      1.9638258      0              6.100222       34.568652    
     58200   2.7373596      1.9801425      0              6.084177       34.973851    
     58300   2.7378168      1.9775836      0              6.0823036      34.869819    
     58400   2.7751453      1.9707463      0              6.1314316      34.680554    
     58500   2.7856329      2.0438719      0              6.220281       35.372624    
     58600   2.8277473      1.9268812      0              6.1664311      34.464055    
     58700   2.7406379      1.8787182      0              5.9876678      33.974432    
     58800   2.6943096      1.9341725      0              5.9736635      34.277361    
     58900   2.7192439      1.9658588      0              6.042733       34.630373    
     59000   2.7627063      2.0073217      0              6.1493577      35.051143    
     59100   2.7605882      1.9929669      0              6.1318273      34.915703    
     59200   2.703338       1.8751124      0              5.9281393      33.861215    
     59300   2.6844285      1.9062483      0              5.9309249      33.956717    
     59400   2.7742343      1.8956347      0              6.0549543      33.758746    
     59500   2.7779755      1.955537       0              6.1204656      34.311492    
     59600   2.7182131      1.9386385      0              6.0139674      34.318882    
     59700   2.659932       1.8740651      0              5.8620148      33.383904    
     59800   2.6870542      1.8539916      0              5.8826048      33.521302    
     59900   2.7076235      1.9077754      0              5.9672276      33.914682    
     60000   2.7149468      1.973588       0              6.0440197      34.584895    
     60100   2.7565463      1.918349       0              6.0511495      34.167659    
     60200   2.6346948      1.9177203      0              5.8678328      33.833314    
     60300   2.6881484      1.7780547      0              5.8083084      32.326369    
     60400   2.6504348      1.9198168      0              5.8935278      34.20926     
     60500   2.6897381      1.9351001      0              5.9677372      34.390918    
     60600   2.714542       1.895788       0              5.9656128      33.603516    
     60700   2.6869885      1.8973279      0              5.9258426      33.949422    
     60800   2.7265678      1.819796       0              5.9076507      33.077751    
     60900   2.6762929      1.8944402      0              5.9069194      33.816484    
     61000   2.6701495      1.9168232      0              5.9200917      33.899499    
     61100   2.6966174      1.8872693      0              5.9302203      33.615776    
     61200   2.6821763      1.8895781      0              5.9108781      33.78388     
     61300   2.6441564      1.8764445      0              5.8407424      33.31843     
     61400   2.6651411      1.8185821      0              5.8143417      33.095502    
     61500   2.6746759      1.8581116      0              5.8681664      33.243214    
     61600   2.7039082      1.9157896      0              5.9696715      33.894151    
     61700   2.7192312      1.9323842      0              6.0092394      34.093066    
     61800   2.6211689      1.9008891      0              5.8307226      33.732929    
     61900   2.6604461      1.7638146      0              5.7525352      32.184944    
     62000   2.6863415      1.769014       0              5.7965587      31.956043    
     62100   2.6824595      1.8911521      0              5.9128766      33.734284    
     62200   2.6749484      1.974143       0              5.9846064      34.89961     
     62300   2.7225944      1.8394228      0              5.9213202      33.105459    
     62400   2.6320425      1.785385       0              5.731521       32.519089    
     62500   2.589796       1.8320515      0              5.7148486      33.255914    
     62600   2.6449241      1.8574509      0              5.8228999      32.993957    
     62700   2.6465562      1.9435856      0              5.9114816      34.36944     
     62800   2.6544312      1.8797071      0              5.8594098      33.376668    
     62900   2.5709528      1.8065002      0              5.6610463      32.796167    
     63000   2.5824309      1.8172144      0              5.6889694      32.606392    
     63100   2.5864515      1.9109859      0              5.7887688      33.900488    
     63200   2.6333844      1.892025       0              5.8401728      33.615541    
     63300   2.6295671      1.8243718      0              5.7667965      33.111414    
     63400   2.4935034      1.8360191      0              5.5744479      33.215969    
     63500   2.5635783      1.7793564      0              5.6228462      31.807077    
     63600   2.6375986      1.7735204      0              5.7279865      32.125063    
     63700   2.6464022      1.8003628      0              5.7680278      32.54223     
     63800   2.6029193      1.8363059      0              5.7387784      33.140997    
     63900   2.5064561      1.859379       0              5.6172274      33.068468    
     64000   2.4988292      1.7575058      0              5.5039195      32.221451    
     64100   2.5485072      1.790246       0              5.6111403      32.656337    
     64200   2.5931116      1.8244052      0              5.7121734      32.725758    
     64300   2.6150256      1.79437        0              5.7149931      32.52791     
     64400   2.5778498      1.7943527      0              5.6592393      32.466361    
     64500   2.5792307      1.705822       0              5.5727789      31.603093    
     64600   2.4951959      1.744082       0              5.4850483      31.613446    
     64700   2.549757       1.7748322      0              5.5976002      32.164734    
     64800   2.5982053      1.8399684      0              5.7353734      33.14624     
     64900   2.591204       1.8345878      0              5.7194959      33.06884     
     65000   2.5091309      1.8499492      0              5.6118078      33.064632    
     65100   2.5686748      1.7260064      0              5.5771373      31.833534    
     65200   2.5955197      1.7410493      0              5.6324278      31.936345    
     65300   2.6367293      1.8344396      0              5.7876023      33.087378    
     65400   2.5625351      1.8895481      0              5.7314739      33.448332    
     65500   2.4977057      1.8313927      0              5.5761219      32.988366    
     65600   2.4986487      1.7949643      0              5.5411073      32.461969    
     65700   2.5309239      1.7903891      0              5.5849213      32.315326    
     65800   2.5724897      1.7886052      0              5.6454556      32.29476     
     65900   2.6458203      1.7869556      0              5.7537482      32.271942    
     66000   2.5468359      1.8461989      0              5.6645873      33.093719    
     66100   2.4870326      1.7899147      0              5.518642       32.192679    
     66200   2.5098363      1.7414188      0              5.5043349      31.570633    
     66300   2.5608392      1.6944174      0              5.5338005      31.085454    
     66400   2.5704271      1.7726412      0              5.6263992      32.064516    
     66500   2.6137885      1.7881476      0              5.706916       32.384478    
     66600   2.5090413      1.8143188      0              5.5760431      32.486282    
     66700   2.4699057      1.7608944      0              5.4639439      31.927223    
     66800   2.5197833      1.714385       0              5.4922143      31.368774    
     66900   2.5273761      1.7768         0              5.566013       32.299077    
     67000   2.6078361      1.7127163      0              5.6225604      31.385472    
     67100   2.5064986      1.7671227      0              5.5250348      32.20445     
     67200   2.5056949      1.6258947      0              5.3826018      30.57185     
     67300   2.4564404      1.701058       0              5.3839194      30.983169    
     67400   2.5286101      1.7232006      0              5.5142637      31.854445    
     67500   2.5481683      1.7413141      0              5.5617003      31.724477    
     67600   2.5188852      1.7204549      0              5.4969379      31.359212    
     67700   2.4813819      1.7171063      0              5.4373617      31.239711    
     67800   2.4749297      1.7033113      0              5.4138932      31.191108    
     67900   2.4553631      1.7096894      0              5.3909357      31.388498    
     68000   2.4530437      1.7108262      0              5.3885951      31.333633    
     68100   2.5007183      1.6927685      0              5.4420144      31.098837    
     68200   2.4889225      1.7548632      0              5.486424       31.86462     
     68300   2.5233296      1.7113427      0              5.4944891      31.392558    
     68400   2.443426       1.6909217      0              5.3542711      31.126669    
     68500   2.4074956      1.6821338      0              5.291614       30.936119    
     68600   2.4178443      1.7330987      0              5.3580943      31.71724     
     68700   2.4980901      1.6819374      0              5.4272429      31.128571    
     68800   2.4574626      1.7487025      0              5.4330966      31.60059     
     68900   2.4190012      1.7645087      0              5.3912387      31.943536    
     69000   2.4142281      1.7203083      0              5.3398822      31.453308    
     69100   2.4022978      1.6740601      0              5.2757473      30.827195    
     69200   2.3821715      1.6054385      0              5.1769511      30.082668    
     69300   2.4402998      1.6089716      0              5.2676339      30.031957    
     69400   2.5045878      1.6423322      0              5.3973794      30.549605    
     69500   2.4935835      1.6619372      0              5.4004861      30.775731    
     69600   2.4466948      1.6305147      0              5.2987648      30.351585    
     69700   2.4064976      1.6240336      0              5.2320175      30.259239    
     69800   2.4112161      1.6671358      0              5.2821939      30.603033    
     69900   2.5211535      1.7043062      0              5.48419        31.370338    
     70000   2.4447721      1.7605579      0              5.4259254      31.704768    
     70100   2.3895628      1.7154366      0              5.2980306      31.19373     
     70200   2.3982144      1.6508915      0              5.2464566      30.526825    
     70300   2.3998162      1.649912       0              5.2478786      30.879414    
     70400   2.4187023      1.7421102      0              5.3683921      31.679489    
     70500   2.5470699      1.6526209      0              5.4713602      30.72779     
     70600   2.4306077      1.7014473      0              5.3455786      31.17715     
     70700   2.4598412      1.5958098      0              5.28377        29.933981    
     70800   2.4190738      1.5898772      0              5.2167161      29.883578    
     70900   2.3651925      1.6286947      0              5.1747512      30.371683    
     71000   2.3690366      1.6232836      0              5.1751034      30.258192    
     71100   2.4332499      1.6443526      0              5.2924454      30.243774    
     71200   2.4424214      1.6739541      0              5.3357973      30.856408    
     71300   2.3423687      1.6981607      0              5.2099982      31.122225    
     71400   2.312341       1.6763048      0              5.1431227      30.768233    
     71500   2.3688218      1.6161021      0              5.1675998      29.852465    
     71600   2.3528046      1.6802382      0              5.2077219      30.78951     
     71700   2.4522284      1.5917447      0              5.2682912      29.608939    
     71800   2.3404561      1.6484625      0              5.1574324      30.701886    
     71900   2.2882245      1.6064537      0              5.0371146      29.973466    
     72000   2.3510017      1.5766062      0              5.1013869      29.696526    
     72100   2.4080041      1.6029475      0              5.21319        30.053759    
     72200   2.3408434      1.7121596      0              5.2217103      31.176147    
     72300   2.3261482      1.6629449      0              5.1504634      30.74169     
     72400   2.2588722      1.6607409      0              5.0473948      30.301916    
     72500   2.2511461      1.5186831      0              4.8937535      28.726513    
     72600   2.3127617      1.5329377      0              5.0003864      28.938853    
     72700   2.3297797      1.6148268      0              5.10779        30.157904    
     72800   2.3514014      1.6567977      0              5.1821776      30.359751    
     72900   2.3767527      1.5998937      0              5.1632819      29.747925    
     73000   2.293369       1.5871618      0              5.0255355      29.871556    
     73100   2.2758235      1.5734848      0              4.9855532      29.318678    
     73200   2.2553944      1.6477076      0              5.0291473      30.499553    
     73300   2.3595803      1.5371295      0              5.0747716      29.022847    
     73400   2.3346432      1.5937274      0              5.0939823      29.980697    
     73500   2.3877044      1.529463       0              5.1092708      28.939583    
     73600   2.2850489      1.6115296      0              5.0374293      30.068007    
     73700   2.2863217      1.5157618      0              4.9435699      28.854158    
     73800   2.3037098      1.5185766      0              4.972454       28.900133    
     73900   2.3437395      1.5868138      0              5.1007064      29.889956    
     74000   2.3281463      1.6596793      0              5.1501936      30.569323    
     74100   2.324662       1.5986594      0              5.0839497      30.07316     
     74200   2.3069945      1.579922       0              5.0387239      29.719354    
     74300   2.2840509      1.5744413      0              4.9988448      29.533869    
     74400   2.2954318      1.5233734      0              4.96484        28.727231    
     74500   2.2613967      1.5276669      0              4.9181057      28.892311    
     74600   2.2404582      1.5332353      0              4.8922817      29.298011    
     74700   2.2524525      1.5985797      0              4.9756088      29.788731    
     74800   2.3235943      1.5894783      0              5.0731679      29.647846    
     74900   2.2985876      1.6123243      0              5.0585222      29.718465    
     75000   2.2472643      1.5302209      0              4.8994715      29.00983     
     75100   2.2067751      1.5600435      0              4.8685898      29.277972    
     75200   2.295396       1.4831445      0              4.9245573      28.684179    
     75300   2.276293       1.5741392      0              4.9869116      29.397007    
     75400   2.3353721      1.4982549      0              4.9996025      28.659281    
     75500   2.24653        1.4822736      0              4.8504232      28.455469    
     75600   2.1944591      1.5045472      0              4.7946286      28.347792    
     75700   2.1801113      1.6127088      0              4.881279       30.001378    
     75800   2.264544       1.5699692      0              4.9651266      29.668204    
     75900   2.2322494      1.6025069      0              4.9492461      29.947553    
     76000   2.2609014      1.5148019      0              4.904498       28.772742    
     76100   2.2343962      1.5102506      0              4.8602085      28.759526    
     76200   2.1939188      1.5528525      0              4.8421239      29.279659    
     76300   2.254877       1.5541121      0              4.934776       29.420553    
     76400   2.287137       1.5934446      0              5.0224749      29.727631    
     76500   2.2564749      1.5249792      0              4.9080389      28.966231    
     76600   2.1936447      1.5338986      0              4.8227589      28.972083    
     76700   2.2447998      1.4475752      0              4.8131307      27.821666    
     76800   2.2057723      1.5394804      0              4.8465232      28.8152      
     76900   2.2420656      1.5819648      0              4.943421       29.586973    
     77000   2.2626939      1.5780981      0              4.9704817      29.861346    
     77100   2.2378072      1.4624798      0              4.8175516      28.004156    
     77200   2.1887986      1.4855924      0              4.7671872      28.215396    
     77300   2.1967466      1.4820416      0              4.7755526      28.29781     
     77400   2.2792813      1.4338025      0              4.851055       27.772194    
     77500   2.2853699      1.5346769      0              4.9610579      28.941038    
     77600   2.2208261      1.5831222      0              4.9127347      29.2809      
     77700   2.1881589      1.4731103      0              4.7537459      28.233569    
     77800   2.1801062      1.4645982      0              4.7331607      28.139821    
     77900   2.2028953      1.4353328      0              4.7380623      27.713131    
     78000   2.1882412      1.522738       0              4.8034971      28.756288    
     78100   2.2747113      1.4792794      0              4.8896803      28.32153     
     78200   2.2166825      1.4872003      0              4.8106005      28.582493    
     78300   2.1688451      1.4188106      0              4.6704897      27.358843    
     78400   2.1153766      1.4940349      0              4.6655505      28.399061    
     78500   2.1921768      1.4709482      0              4.7576078      28.073363    
     78600   2.2010878      1.4934063      0              4.7934259      28.581853    
     78700   2.1263966      1.5207873      0              4.7088247      28.908752    
     78800   2.0735019      1.4535771      0              4.5623113      27.801539    
     78900   2.1393169      1.4102598      0              4.6176682      27.510784    
     79000   2.1815774      1.4402224      0              4.7109907      27.860237    
     79100   2.1780128      1.4743131      0              4.7397371      28.2291      
     79200   2.1790073      1.4441414      0              4.7110564      27.613625    
     79300   2.1058253      1.396773       0              4.5539686      27.340939    
     79400   2.0853692      1.4201946      0              4.5467211      27.74707     
     79500   2.1113568      1.4662898      0              4.6317786      27.948547    
     79600   2.1390347      1.4624085      0              4.669394       28.209506    
     79700   2.1600844      1.4374619      0              4.6760065      27.728605    
     79800   2.1151164      1.448065       0              4.6191904      27.911622    
     79900   2.0919431      1.3564603      0              4.4928428      26.532652    
     80000   2.0879574      1.4038769      0              4.5342838      26.912411    
     80100   2.0865221      1.5060818      0              4.6343367      28.487417    
     80200   2.1394568      1.4379147      0              4.6455328      27.81981     
     80300   2.0968843      1.4695642      0              4.6133548      28.025494    
     80400   2.0716591      1.439167       0              4.5451383      27.74324     
     80500   2.1082063      1.3326347      0              4.4934001      26.111575    
     80600   2.0723744      1.3737228      0              4.4807665      26.862962    
     80700   2.1439002      1.3962294      0              4.6105095      27.009155    
     80800   2.0942198      1.5121994      0              4.6519952      28.538419    
     80900   2.1105056      1.4128308      0              4.5770434      27.340923    
     81000   2.0740614      1.3855901      0              4.4951632      26.987248    
     81100   2.0729728      1.3959491      0              4.5038901      27.190463    
     81200   2.1241102      1.3445232      0              4.5291328      26.613433    
     81300   2.1395485      1.3455018      0              4.5532575      26.621361    
     81400   2.1138353      1.3781153      0              4.54732        26.909271    
     81500   2.0581778      1.3816395      0              4.4673987      26.724218    
     81600   2.0426493      1.3090762      0              4.371554       26.134088    
     81700   2.0379196      1.3961817      0              4.4515685      27.083819    
     81800   2.091955       1.4077455      0              4.5441458      27.203785    
     81900   2.1193933      1.3624428      0              4.5399805      26.558959    
     82000   2.0580211      1.3983652      0              4.4838895      26.867512    
     82100   2.0709184      1.3197765      0              4.4246374      26.189393    
     82200   2.0305679      1.4070918      0              4.4514565      26.887636    
     82300   2.1092155      1.4147468      0              4.5770252      27.020495    
     82400   2.1131191      1.4028043      0              4.5709354      27.131461    
     82500   2.0534045      1.3740908      0              4.4526936      26.874597    
     82600   2.0204562      1.3979069      0              4.4271114      26.952643    
     82700   2.0303049      1.3903639      0              4.4343342      27.049741    
     82800   2.0170666      1.4172058      0              4.4413284      27.350806    
     82900   2.0870981      1.3368241      0              4.4659425      26.320417    
     83000   2.0856131      1.348709       0              4.4756011      26.688365    
     83100   2.0537564      1.3208719      0              4.4000024      25.93156     
     83200   1.9769354      1.3633695      0              4.3273247      26.452676    
     83300   1.9956194      1.3591733      0              4.3511408      26.79119     
     83400   2.0482585      1.4241896      0              4.4950772      27.103371    
     83500   2.0996973      1.3469091      0              4.4949171      26.718547    
     83600   2.0577435      1.3361675      0              4.4212756      26.30559     
     83700   2.0256235      1.3248847      0              4.3618363      26.425368    
     83800   2.0272367      1.3224148      0              4.361785       26.049631    
     83900   2.0629684      1.2853424      0              4.3782841      25.913883    
     84000   2.0612484      1.3354928      0              4.4258557      26.210613    
     84100   2.0539571      1.3443229      0              4.4237541      26.529766    
     84200   2.0071512      1.3179623      0              4.3272191      25.951196    
     84300   1.9655158      1.3211194      0              4.2679535      26.002574    
     84400   1.9843206      1.3143251      0              4.2893526      25.959045    
     84500   2.0527446      1.3631314      0              4.4407447      26.522248    
     84600   2.0837649      1.3082571      0              4.4323782      26.039848    
     84700   2.0157699      1.3206092      0              4.3427876      25.913844    
     84800   1.9672565      1.3421795      0              4.2916234      26.095596    
     84900   1.9688493      1.3185127      0              4.2703446      26.152379    
     85000   1.9704779      1.3290663      0              4.2833399      26.215754    
     85100   2.0299044      1.3547278      0              4.3980975      26.667921    
     85200   2.0188008      1.3976388      0              4.4243614      26.901576    
     85300   1.9496603      1.3663531      0              4.2894156      26.516163    
     85400   1.9760673      1.2900065      0              4.2526601      25.810265    
     85500   1.9801434      1.2805776      0              4.2493424      25.340654    
     85600   1.9369352      1.3227102      0              4.2266944      26.1572      
     85700   2.0187196      1.2312855      0              4.2578863      25.081791    
     85800   1.976773       1.3235145      0              4.2872262      26.261421    
     85900   1.9639453      1.3338758      0              4.2783554      26.127965    
     86000   1.9081284      1.3181842      0              4.1789792      25.857556    
     86100   1.9441656      1.2173098      0              4.1321343      24.788384    
     86200   1.9479345      1.2751347      0              4.1956098      25.38414     
     86300   2.0269861      1.2495652      0              4.2885598      25.170128    
     86400   1.9451616      1.3426242      0              4.2589419      26.176775    
     86500   1.9223627      1.3222362      0              4.2043723      25.99992     
[...]
    128500   0.7041747      0.40797819     0              1.4637245      11.351539    
    128600   0.72570672     0.38992808     0              1.4779566      11.032209    
    128700   0.73943378     0.38634805     0              1.4949571      11.157903    
    128800   0.71710071     0.39022879     0              1.4653546      11.132199    
    128900   0.71261759     0.35881435     0              1.4272188      10.499779    
    129000   0.69788729     0.37712693     0              1.4234467      10.935552    
    129100   0.70422333     0.3851553      0              1.4409745      10.922156    
    129200   0.71839266     0.3951642      0              1.472227       11.261366    
    129300   0.72414939     0.38385839     0              1.4695521      10.862935    
    129400   0.70520689     0.35658658     0              1.4138804      10.473884    
    129500   0.67947179     0.37964497     0              1.398355       10.895373    
    129600   0.67990664     0.37697589     0              1.3963379      10.847632    
    129700   0.68105929     0.37445131     0              1.3955414      10.785375    
    129800   0.69308807     0.35696042     0              1.3960849      10.407273    
    129900   0.68772368     0.34201707     0              1.3730989      10.234779    
    130000   0.66361358     0.35958257     0              1.3545169      10.449264    
    130100   0.66478627     0.36059287     0              1.3572854      10.595949    
    130200   0.6864932      0.36583876     0              1.3950758      10.616702    
    130300   0.68878289     0.36318599     0              1.3958559      10.535768    
    130400   0.67477247     0.33774487     0              1.3494094      10.039085    
    130500   0.67597641     0.32439362     0              1.3378631      9.7517674    
    130600   0.66647382     0.33608643     0              1.335309       10.121113    
    130700   0.6602068      0.34969066     0              1.3395173      10.310862    
    130800   0.66786334     0.34699307     0              1.3482989      10.264912    
    130900   0.6613918      0.33582325     0              1.3274265      9.9955038    
    131000   0.62675608     0.35337136     0              1.2930464      10.233663    
    131100   0.63606445     0.34082703     0              1.2944578      10.100123    
    131200   0.66413267     0.32612265     0              1.3218352      9.8670068    
    131300   0.6517117      0.35555991     0              1.3326501      10.283103    
    131400   0.64619393     0.3128973      0              1.2817149      9.5351547    
    131500   0.62521178     0.32497666     0              1.2623364      9.9466075    
    131600   0.62707925     0.33657329     0              1.2767329      9.9662769    
    131700   0.63788244     0.33672836     0              1.2930848      10.149407    
    131800   0.63750079     0.33472365     0              1.2905079      10.003518    
    131900   0.61351933     0.323191       0              1.2430206      9.7107245    
    132000   0.61907509     0.30531029     0              1.2334695      9.4575107    
    132100   0.61516532     0.33023972     0              1.2525371      9.8726174    
    132200   0.62303606     0.33151832     0              1.2656161      9.8582432    
    132300   0.60699553     0.31421126     0              1.22426        9.5038439    
    132400   0.61100088     0.28924157     0              1.2052954      9.1675762    
    132500   0.60113988     0.31747185     0              1.2187414      9.5639787    
    132600   0.61435248     0.31542993     0              1.2365087      9.6901659    
    132700   0.60860111     0.30571023     0              1.2181661      9.4022244    
    132800   0.58907528     0.29600372     0              1.1791852      9.0917064    
    132900   0.59813515     0.28235654     0              1.1791212      8.8654679    
    133000   0.59497747     0.30270782     0              1.1947383      9.2860212    
    133100   0.60157092     0.29885598     0              1.2007718      9.1921914    
    133200   0.58024667     0.30154999     0              1.171495       9.281102     
    133300   0.5770615      0.2736918      0              1.1388614      8.6283712    
    133400   0.58119437     0.28187829     0              1.1532442      8.8747244    
    133500   0.58853027     0.29354046     0              1.1759048      9.0608068    
    133600   0.58838223     0.29171238     0              1.1738548      9.0976911    
    133700   0.56697344     0.28753951     0              1.1375844      8.930173     
    133800   0.56116065     0.28825675     0              1.1295867      9.0700959    
    133900   0.57418926     0.27358716     0              1.1344505      8.6786729    
    134000   0.57535242     0.27739576     0              1.140003       8.6973256    
    134100   0.56060658     0.28352873     0              1.124028       8.8565991    
    134200   0.54324793     0.2769999      0              1.0914739      8.7541427    
    134300   0.54664327     0.27536839     0              1.0949329      8.6053198    
    134400   0.5642707      0.27203843     0              1.1180312      8.6584411    
    134500   0.56363157     0.28573868     0              1.1307732      9.0675175    
    134600   0.54790595     0.26880091     0              1.0902585      8.6286368    
    134700   0.5357694      0.26544779     0              1.0687095      8.4644931    
    134800   0.53622457     0.26898475     0              1.0729289      8.6525073    
    134900   0.53896483     0.27776257     0              1.0858151      8.7215588    
    135000   0.54525399     0.26516759     0              1.0826492      8.5622033    
    135100   0.54025663     0.23803337     0              1.0480226      8.0716664    
    135200   0.51241684     0.26849503     0              1.036745       8.4881777    
    135300   0.52805878     0.25745175     0              1.0491532      8.2869527    
    135400   0.5298369      0.26580022     0              1.0601675      8.4587127    
    135500   0.52403023     0.25439737     0              1.0400589      8.2611231    
    135600   0.51056803     0.24611153     0              1.0115896      8.0203207    
    135700   0.51082617     0.24653092     0              1.012396       8.1033032    
    135800   0.51571975     0.25671905     0              1.0299209      8.2736362    
    135900   0.52558927     0.25288481     0              1.0408838      8.2842427    
    136000   0.50151224     0.25528219     0              1.0071832      8.2248391    
    136100   0.48836979     0.25404103     0              0.98623802     8.20628      
    136200   0.50532056     0.23171417     0              0.98932491     7.8473786    
    136300   0.50493189     0.24020383     0              0.99723184     7.9826707    
    136400   0.49025634     0.25719104     0              0.99221648     8.3074803    
    136500   0.4902948      0.22832655     0              0.96340965     7.6210092    
    136600   0.4814286      0.22853738     0              0.95032767     7.6602305    
    136700   0.49080405     0.22592859     0              0.96177519     7.5666821    
    136800   0.48648395     0.24886642     0              0.97823604     8.1693279    
    136900   0.49407093     0.24737742     0              0.98812195     8.0520759    
    137000   0.48848381     0.21996443     0              0.95233237     7.5503935    
    137100   0.47080182     0.22368618     0              0.92954408     7.4551241    
    137200   0.46516652     0.22482257     0              0.92223166     7.6345391    
    137300   0.47917404     0.21009608     0              0.92850617     7.3810038    
    137400   0.47822712     0.22262301     0              0.93961343     7.5805504    
    137500   0.46756505     0.22501134     0              0.92601646     7.6487891    
    137600   0.45568187     0.21390499     0              0.89709405     7.3715855    
    137700   0.45702937     0.20842983     0              0.89363915     7.3201126    
    137800   0.46084944     0.20973994     0              0.90067656     7.2173557    
    137900   0.46294949     0.21333725     0              0.9074224      7.3612354    
    138000   0.45034376     0.21483408     0              0.89001989     7.3958293    
    138100   0.43953786     0.20732609     0              0.86631095     7.0813538    
    138200   0.43579458     0.20797393     0              0.86134662     7.1035458    
    138300   0.44226416     0.20672231     0              0.86979462     7.1693963    
    138400   0.45345806     0.20289818     0              0.88275315     7.0907551    
    138500   0.43864482     0.21725514     0              0.8749011      7.3648596    
    138600   0.43101929     0.19848063     0              0.84469388     6.9689598    
    138700   0.41577497     0.2093138      0              0.83267173     7.2392389    
    138800   0.4249591      0.19594794     0              0.83307534     6.9779559    
    138900   0.42378145     0.20123768     0              0.83659947     6.9939582    
    139000   0.42047555     0.19775363     0              0.828159       6.9703871    
    139100   0.41359384     0.18536379     0              0.80545162     6.6211709    
    139200   0.41025763     0.18409387     0              0.79917983     6.7173485    
    139300   0.41010417     0.19463723     0              0.80949312     6.8782282    
    139400   0.42819177     0.19068908     0              0.83266311     6.8289752    
    139500   0.40972299     0.1985         0              0.8127844      6.9975955    
    139600   0.40001605     0.19036468     0              0.79009578     6.7501883    
    139700   0.3942666      0.18506863     0              0.77617976     6.6382997    
    139800   0.39407813     0.17699338     0              0.76782194     6.365483     
    139900   0.38478623     0.18524895     0              0.76214648     6.5957644    
    140000   0.38751473     0.17802526     0              0.75901352     6.459058     
    140100   0.38474311     0.17545971     0              0.75229258     6.4729       
    140200   0.38293972     0.17088115     0              0.74501027     6.3461563    
    140300   0.37506381     0.17469109     0              0.7370121      6.3511019    
    140400   0.37155805     0.16905701     0              0.72612195     6.2744878    
    140500   0.37256797     0.16798907     0              0.72656814     6.2191843    
    140600   0.38503239     0.16283271     0              0.74009929     6.1500472    
    140700   0.37323667     0.1773848      0              0.73696644     6.4391758    
    140800   0.36221779     0.1672899      0              0.71035129     6.171871     
    140900   0.36104564     0.16174398     0              0.703048       6.0627787    
    141000   0.36360796     0.15789283     0              0.70303846     6.0473583    
    141100   0.35468044     0.16844881     0              0.7002097      6.3817689    
    141200   0.35257456     0.15218979     0              0.68079339     5.7660276    
    141300   0.34088923     0.156831       0              0.66791517     5.9350679    
    141400   0.35049211     0.15049372     0              0.67597517     5.8379374    
    141500   0.35534163     0.1572824      0              0.69003458     6.0048104    
    141600   0.36354449     0.15002968     0              0.69508015     5.832953     
    141700   0.34605087     0.14487659     0              0.66369944     5.6119196    
    141800   0.33699787     0.14476967     0              0.65001964     5.5881123    
    141900   0.3293531      0.15054978     0              0.64433821     5.805351     
    142000   0.3247788      0.15318254     0              0.64011287     5.7716963    
    142100   0.3211371      0.15064343     0              0.63211387     5.6869674    
    142200   0.32298185     0.13845593     0              0.62269214     5.5579025    
    142300   0.32249356     0.13314148     0              0.61664562     5.2907644    
    142400   0.31861108     0.13630722     0              0.61399049     5.3326349    
    142500   0.31770969     0.13772423     0              0.61405607     5.3885708    
    142600   0.31799729     0.13518367     0              0.61194669     5.2976076    
    142700   0.31758198     0.1208762      0              0.59701657     4.9821276    
    142800   0.30299422     0.13067391     0              0.58494332     5.247222     
    142900   0.3042795      0.13067357     0              0.58686995     5.2293585    
    143000   0.31129978     0.12835886     0              0.59508052     5.1084972    
    143100   0.31103582     0.13228987     0              0.59861578     5.3598632    
    143200   0.30472586     0.11896208     0              0.57582769     4.918344     
    143300   0.28795418     0.13044311     0              0.56216347     5.2358762    
    143400   0.28840785     0.12368561     0              0.55608615     5.1039309    
    143500   0.28650307     0.12381549     0              0.55336025     5.072003     
    143600   0.28296344     0.11855464     0              0.54279255     4.9108519    
    143700   0.27281187     0.12041045     0              0.52942844     4.9688649    
    143800   0.27438668     0.1147174      0              0.52609645     4.8351109    
    143900   0.2847747      0.11804737     0              0.54500084     4.8280728    
    144000   0.28397786     0.12124505     0              0.54700385     4.9440791    
    144100   0.2756849      0.11730816     0              0.53063358     4.8820531    
    144200   0.27286868     0.10847987     0              0.51758305     4.7174439    
    144300   0.26393064     0.10829816     0              0.50400081     4.6297263    
    144400   0.26212636     0.10313647     0              0.49613403     4.528685     
    144500   0.25743795     0.10461664     0              0.49058501     4.5457878    
    144600   0.25566919     0.098279431    0              0.48159596     4.3133806    
    144700   0.24821029     0.097563879    0              0.46969752     4.2270565    
    144800   0.24664248     0.099336699    0              0.46911978     4.3745879    
    144900   0.25758514     0.09849619     0              0.48468523     4.3584887    
    145000   0.25385535     0.099611087    0              0.48020818     4.4159084    
    145100   0.24162399     0.10309506     0              0.46535408     4.4486273    
    145200   0.24229223     0.093142698    0              0.45640359     4.1258136    
    145300   0.24010191     0.086048676    0              0.44602569     3.9590373    
    145400   0.23118503     0.091926255    0              0.43853448     4.151021     
    145500   0.23277722     0.085105565    0              0.43410091     3.9087834    
    145600   0.2262879      0.084011043    0              0.42327716     3.8829533    
    145700   0.22011107     0.081901306    0              0.41190669     3.8251216    
    145800   0.2207837      0.086021383    0              0.41703522     3.9727952    
    145900   0.2243609      0.085955537    0              0.42233256     3.9278855    
    146000   0.21807498     0.081155693    0              0.40810844     3.8241882    
    146100   0.21200171     0.078444857    0              0.39629215     3.7635284    
    146200   0.21093534     0.079660583    0              0.39590911     3.7828048    
    146300   0.21119563     0.077434046    0              0.39407281     3.6635116    
    146400   0.20613076     0.073407225    0              0.38245239     3.5460681    
    146500   0.20360183     0.07028003     0              0.37553365     3.4205962    
    146600   0.20150823     0.071518913    0              0.37363366     3.4926697    
    146700   0.19389129     0.074744164    0              0.36543909     3.5999333    
    146800   0.19099926     0.068749771    0              0.35510877     3.3848967    
    146900   0.18631948     0.074444474    0              0.35378722     3.6276069    
    147000   0.19255421     0.065383471    0              0.35407376     3.3303691    
    147100   0.1861819      0.066084071    0              0.34522056     3.2948584    
    147200   0.182882       0.062586534    0              0.33677559     3.2033144    
    147300   0.17998857     0.063002362    0              0.33285339     3.2442371    
    147400   0.17602035     0.063964028    0              0.32786563     3.2039471    
    147500   0.17377828     0.059833447    0              0.32037359     3.0988705    
    147600   0.17367934     0.056904666    0              0.31729647     2.9466093    
    147700   0.16728922     0.061380266    0              0.31219157     3.134144     
    147800   0.16653316     0.055331133    0              0.3050089      2.9637258    
    147900   0.16354035     0.054376171    0              0.29956692     2.8763855    
    148000   0.1593767      0.054370252    0              0.29331858     2.8946042    
    148100   0.15529516     0.056275314    0              0.28910431     2.9326084    
    148200   0.15854765     0.046587471    0              0.28429282     2.6078924    
    148300   0.14985898     0.052981688    0              0.2776604      2.8549494    
    148400   0.14947351     0.048120694    0              0.27222147     2.7126203    
    148500   0.14252452     0.052236939    0              0.26591932     2.7495472    
    148600   0.14134976     0.048862415    0              0.26078353     2.6576204    
    148700   0.13738559     0.048389334    0              0.25436709     2.6918511    
    148800   0.1367467      0.044674339    0              0.24969423     2.5155354    
    148900   0.13536472     0.041489349    0              0.24443728     2.4093597    
    149000   0.13017577     0.043501844    0              0.23867015     2.4591309    
    149100   0.12696627     0.042561043    0              0.23291745     2.4322566    
    149200   0.12690223     0.037212953    0              0.22747334     2.2515294    
    149300   0.12096633     0.040026598    0              0.2213875      2.347413     
    149400   0.12025029     0.035721367    0              0.21600872     2.1717301    
    149500   0.11648463     0.035602206    0              0.21024384     2.1578856    
    149600   0.11558115     0.031659757    0              0.20494683     2.0440886    
    149700   0.11088119     0.032940155    0              0.19918073     2.0742072    
    149800   0.10801785     0.031869384    0              0.19381705     1.9991637    
    149900   0.10578459     0.029953483    0              0.18855289     1.9334486    
    150000   0.10088913     0.031608654    0              0.18286845     1.9862431    
Loop time of 19.9072 on 1 procs for 100000 steps with 2048 atoms

Performance: 868026.230 tau/day, 5023.300 timesteps/s, 10.288 Matom-step/s
99.4% CPU use with 1 MPI tasks x 1 OpenMP threads

MPI task timing breakdown:
Section |  min time  |  avg time  |  max time  |%varavg| %total
---------------------------------------------------------------
Pair    | 10.478     | 10.478     | 10.478     |   0.0 | 52.63
Neigh   | 5.4451     | 5.4451     | 5.4451     |   0.0 | 27.35
Comm    | 0.76827    | 0.76827    | 0.76827    |   0.0 |  3.86
Output  | 0.097587   | 0.097587   | 0.097587   |   0.0 |  0.49
Modify  | 2.517      | 2.517      | 2.517      |   0.0 | 12.64
Other   |            | 0.6015     |            |       |  3.02

Nlocal:           2048 ave        2048 max        2048 min
Histogram: 1 0 0 0 0 0 0 0 0 0
Nghost:           1382 ave        1382 max        1382 min
Histogram: 1 0 0 0 0 0 0 0 0 0
Neighs:          12295 ave       12295 max       12295 min
Histogram: 1 0 0 0 0 0 0 0 0 0

Total # of neighbors = 12295
Ave neighs/atom = 6.003418
Neighbor list builds = 6354
Dangerous builds = 0
Total wall time: 0:00:32
