LAMMPS (15 Sep 2022)
OMP_NUM_THREADS environment is not set. Defaulting to 1 thread. (src/comm.cpp:98)
  using 1 OpenMP thread(s) per MPI task
# 3d WCA system, random initial configuration

#variable density equal 0.5
variable initial_temperature equal 3.0
variable final_temperature equal 0.1
variable dt equal 0.002
variable tau equal 100*${dt}
variable tau equal 100*0.002
variable thermo_time equal 50000*${dt}
variable thermo_time equal 50000*0.002
variable equil_steps equal 50000
variable run_steps equal 100000

units           lj
atom_style      atomic
dimension       3

lattice         fcc ${density}
lattice         fcc 1.0
Lattice spacing in x,y,z = 1.5874011 1.5874011 1.5874011
region          box block 0 8 0 8 0 8
# number of atom types
create_box      1 box
Created orthogonal box = (0 0 0) to (12.699208 12.699208 12.699208)
  1 by 1 by 1 MPI processor grid
create_atoms    1 box
Created 2048 atoms
  using lattice units in orthogonal box = (0 0 0) to (12.699208 12.699208 12.699208)
  create_atoms CPU = 0.000 seconds
mass 1 1.0

velocity all create ${initial_temperature} 12345
velocity all create 3 12345

pair_style      lj/cut 1.0
#type_1 type_2 epsilon sigma cutoff
pair_coeff      1 1 10.0 0.89089871814 1.0
pair_modify shift yes

timestep ${dt}
timestep 0.002
thermo ${thermo_time}
thermo 100

fix 1 all nvt temp ${initial_temperature} ${initial_temperature} ${tau}
fix 1 all nvt temp 3 ${initial_temperature} ${tau}
fix 1 all nvt temp 3 3 ${tau}
fix 1 all nvt temp 3 3 0.2
run ${equil_steps}
run 50000
Generated 0 of 0 mixed pair_coeff terms from geometric mixing rule
Neighbor list info ...
  update: every = 1 steps, delay = 0 steps, check = yes
  max neighbors/atom: 2000, page size: 100000
  master list distance cutoff = 1.3
  ghost atom cutoff = 1.3
  binsize = 0.65, bins = 20 20 20
  1 neighbor lists, perpetual/occasional/extra = 1 0 0
  (1) pair lj/cut, perpetual
      attributes: half, newton on
      pair build: half/bin/atomonly/newton
      stencil: half/bin/3d
      bin: standard
Per MPI rank memory allocation (min/avg/max) = 3.169 | 3.169 | 3.169 Mbytes
   Step          Temp          E_pair         E_mol          TotEng         Press     
         0   3              0              0              4.4978027      2.9985352    
       100   2.3378314      1.2770188      0              4.7820535      19.367014    
       200   2.6153496      1.3715038      0              5.2926127      20.664535    
       300   2.8240833      1.5773666      0              5.8114232      23.135117    
       400   2.9934229      1.7496084      0              6.2375503      24.934141    
       500   3.109757       1.8065307      0              6.4688886      25.401895    
       600   3.0575379      1.7854963      0              6.3695637      25.385953    
       700   2.9714347      1.6770785      0              6.1320542      24.252629    
       800   2.8959659      1.7097494      0              6.0515773      24.564478    
       900   3.0063962      1.6505678      0              6.1579602      24.20801     
      1000   3.0970351      1.6717291      0              6.3150134      24.309844    
      1100   3.1170739      1.6822992      0              6.355627       24.399371    
      1200   3.0374782      1.6701996      0              6.2241922      24.394603    
      1300   2.949093       1.6773579      0              6.0988374      24.398933    
      1400   2.9233332      1.7512777      0              6.1341364      24.620866    
      1500   3.0397687      1.7288698      0              6.2862965      24.783905    
      1600   3.0337287      1.8292188      0              6.3775898      25.636208    
      1700   3.0185398      1.7692599      0              6.2948587      25.121153    
      1800   2.9030573      1.7996251      0              6.1520848      25.207849    
      1900   2.9283067      1.7277464      0              6.1180618      24.700064    
      2000   2.9789466      1.7629576      0              6.2291956      24.806048    
      2100   2.989921       1.8725456      0              6.3552372      25.982043    
      2200   3.0171817      1.7891146      0              6.3126773      25.192752    
      2300   2.9219926      1.7660049      0              6.1468536      25.003418    
      2400   2.9810631      1.6654682      0              6.1348794      24.028838    
      2500   2.9417074      1.7725663      0              6.1829729      25.147117    
      2600   3.0166952      1.7553948      0              6.2782282      25.004915    
      2700   3.0642691      1.7127147      0              6.306874       24.630256    
      2800   2.9693618      1.7060779      0              6.1579457      24.385686    
      2900   2.9530904      1.6032969      0              6.0307697      23.655703    
      3000   2.9551916      1.6903503      0              6.1209732      24.355349    
      3100   2.9996757      1.7261844      0              6.2235009      24.744334    
      3200   3.0014988      1.7676038      0              6.2676537      25.144706    
      3300   2.9931313      1.7636531      0              6.2511579      24.998423    
      3400   2.959296       1.6814074      0              6.118184       24.315021    
      3500   2.8995976      1.6798356      0              6.0271083      24.215733    
      3600   3.0256891      1.6693322      0              6.2056498      24.420846    
      3700   3.0979741      1.6856129      0              6.330305       24.47675     
      3800   3.0019264      1.767247       0              6.2679379      25.20952     
      3900   2.9669324      1.7211089      0              6.1693345      24.512857    
      4000   2.983422       1.6612163      0              6.1341641      24.059239    
      4100   2.9782547      1.8255609      0              6.2907616      25.386455    
      4200   3.1029633      1.7465932      0              6.3987655      24.822026    
      4300   3.0438243      1.7040507      0              6.2675578      24.640094    
      4400   3.0387305      1.5949258      0              6.1507959      23.555584    
      4500   2.9745713      1.7060011      0              6.1656794      24.514234    
      4600   2.992019       1.7810492      0              6.2668863      25.358519    
      4700   3.0628006      1.7400132      0              6.3319709      24.962       
      4800   3.0387873      1.6540242      0              6.2099795      24.266058    
      4900   2.8902652      1.6763068      0              6.0095876      23.97243     
      5000   3.0032509      1.6220815      0              6.1247581      23.794758    
      5100   2.9529287      1.8415652      0              6.2687954      25.722631    
      5200   3.0393886      1.7637471      0              6.3206038      25.093384    
      5300   3.0158845      1.7415672      0              6.2631851      24.863924    
      5400   2.9496246      1.645898       0              6.0681745      24.000924    
      5500   2.9284344      1.6521404      0              6.0426471      23.865858    
      5600   2.9762841      1.6950721      0              6.1573184      24.46081     
      5700   3.0596599      1.6418322      0              6.2290811      24.025115    
      5800   2.9871943      1.7799746      0              6.2585781      25.18469     
      5900   3.0060648      1.7537622      0              6.2606578      25.013162    
      6000   2.9840523      1.6924133      0              6.1663062      24.424835    
      6100   2.937645       1.6719031      0              6.0762191      24.009191    
      6200   2.9736433      1.7110191      0              6.1693061      24.483533    
      6300   3.0143607      1.8231723      0              6.3425055      25.664328    
      6400   3.0433437      1.7426787      0              6.3054652      24.920609    
      6500   2.956635       1.7610847      0              6.1938716      24.819872    
      6600   2.9698664      1.7390188      0              6.1916432      24.685316    
      6700   3.0727395      1.7137763      0              6.3206349      24.722601    
      6800   3.1414267      1.8021851      0              6.5120243      25.413746    
      6900   3.0460682      1.7404921      0              6.3073633      24.970614    
      7000   2.9723388      1.7166409      0              6.1729721      24.86854     
      7100   2.9476481      1.7818252      0              6.2011384      25.289187    
      7200   3.0435973      1.7305259      0              6.2936927      24.908124    
      7300   3.0419375      1.7643235      0              6.3250018      25.080071    
      7400   2.9880863      1.7267407      0              6.2066815      24.543003    
      7500   2.9817187      1.6074744      0              6.0778687      23.515375    
      7600   2.9385208      1.7445851      0              6.1502141      24.824181    
      7700   3.020166       1.7269747      0              6.2550116      24.850102    
      7800   3.0435107      1.6752223      0              6.2382592      24.453975    
      7900   3.0158775      1.6800133      0              6.2016206      24.381493    
      8000   2.9628328      1.7162813      0              6.1583604      24.69714     
      8100   3.0569289      1.6690791      0              6.2522336      24.384945    
      8200   3.0502746      1.8155859      0              6.3887638      25.540845    
      8300   3.0913766      1.7065287      0              6.3413294      24.664183    
      8400   2.9682376      1.7149368      0              6.1651192      24.60697     
      8500   2.9670779      1.7056413      0              6.154085       24.263154    
      8600   2.9926057      1.7259573      0              6.212674       24.743762    
      8700   3.0436566      1.7257363      0              6.288992       24.48394     
      8800   2.9579712      1.7756383      0              6.2104286      25.0568      
      8900   2.866646       1.7366694      0              6.0345388      24.695165    
      9000   2.9841391      1.687949       0              6.1619721      24.375595    
      9100   3.0949555      1.6504091      0              6.2905755      24.211253    
      9200   3.0446486      1.705893       0              6.270636       24.522288    
      9300   2.9358851      1.7547122      0              6.1563896      24.847186    
      9400   2.9355365      1.6653832      0              6.0665379      23.880633    
      9500   2.915186       1.6652375      0              6.0358813      24.08005     
      9600   2.9594848      1.7708981      0              6.2079577      24.814744    
      9700   3.0495707      1.7564464      0              6.3285689      25.103104    
      9800   3.0508566      1.7521524      0              6.3262028      25.062674    
      9900   3.0018455      1.6671833      0              6.1677529      24.277006    
     10000   2.9530501      1.6760178      0              6.1034301      24.258771    
     10100   2.9767355      1.7511211      0              6.2140442      24.657701    
     10200   2.9927796      1.8052752      0              6.2922526      25.570583    
     10300   3.0626081      1.6900341      0              6.2817031      24.469011    
     10400   2.9758398      1.7725121      0              6.2340923      25.178836    
     10500   2.9924545      1.7148096      0              6.2012996      24.517085    
     10600   2.9513961      1.7131418      0              6.1380744      24.430333    
     10700   2.9615402      1.6974805      0              6.1376218      24.384525    
     10800   3.0782782      1.6918283      0              6.306991       24.439514    
     10900   3.045637       1.7826875      0              6.3489124      25.341854    
     11000   3.0030916      1.6838265      0              6.1862644      24.397556    
     11100   2.9667057      1.699744       0              6.1476296      24.286609    
     11200   2.9531607      1.7845576      0              6.2121357      25.2321      
     11300   3.0298634      1.7528758      0              6.2954518      24.789899    
     11400   2.9892123      1.8083192      0              6.2899483      25.219654    
     11500   2.9120464      1.7116055      0              6.0775423      24.521153    
     11600   2.9175663      1.6818563      0              6.0560688      24.248912    
     11700   2.9777028      1.7338385      0              6.1982118      24.738128    
     11800   3.0788104      1.6449372      0              6.2608979      23.961194    
     11900   3.0404799      1.6541649      0              6.2126579      24.23223     
     12000   3.0274258      1.597376       0              6.1362973      23.729165    
     12100   2.9332403      1.7362257      0              6.1339378      24.679246    
     12200   3.0797645      1.7090848      0              6.3264759      24.643254    
     12300   3.079294       1.7201448      0              6.3368304      24.801883    
     12400   2.9697616      1.7338993      0              6.1863665      24.962767    
     12500   2.9587159      1.6873013      0              6.1232082      24.138106    
     12600   2.9447881      1.7335207      0              6.148546       24.675718    
     12700   3.0087973      1.6925768      0              6.2035691      24.531975    
     12800   3.0663752      1.6276706      0              6.2249876      23.671371    
     12900   3.0019183      1.7068939      0              6.2075727      24.545064    
     13000   2.9881113      1.7272167      0              6.2071951      24.688447    
     13100   3.0699508      1.7415603      0              6.344238       25.000949    
     13200   3.0608849      1.8297659      0              6.4188514      25.569572    
     13300   3.0263138      1.6973449      0              6.2345991      24.317031    
     13400   2.9429394      1.7178797      0              6.1301334      24.559491    
     13500   2.9288495      1.7803189      0              6.171448       25.071365    
     13600   3.061303       1.7086771      0              6.2983895      24.83366     
     13700   3.053405       1.7202966      0              6.2981678      24.651308    
     13800   2.9325799      1.6960635      0              6.0927855      24.455492    
     13900   2.8997884      1.6992691      0              6.0468278      24.415908    
     14000   2.9740691      1.6922872      0              6.1512126      24.361974    
     14100   2.9813486      1.779961       0              6.2498002      25.19821     
     14200   3.0873708      1.6878951      0              6.31669        24.365266    
     14300   3.040192       1.6423326      0              6.2003939      23.875672    
     14400   2.894696       1.7125894      0              6.0525133      24.702657    
     14500   2.9695856      1.6903371      0              6.1425406      24.413001    
     14600   3.0185777      1.7254903      0              6.2511459      24.750452    
     14700   3.0395131      1.7150243      0              6.2720678      24.428196    
     14800   2.9672918      1.7697079      0              6.2184723      25.081905    
     14900   2.9452215      1.6898353      0              6.1055104      24.304749    
     15000   2.9121332      1.6566884      0              6.0227553      24.015647    
     15100   2.942207       1.7998956      0              6.2110512      25.494537    
     15200   3.0034064      1.8048847      0              6.3077945      25.306155    
     15300   2.9799753      1.8008964      0              6.2686768      25.435163    
     15400   2.9229367      1.7686468      0              6.150911       24.920525    
     15500   2.9348286      1.6933328      0              6.0934261      24.416184    
     15600   3.0825445      1.6818477      0              6.3034067      24.405008    
     15700   3.0883711      1.7255088      0              6.3558034      24.853468    
     15800   2.950771       1.7796315      0              6.2036269      24.976427    
     15900   3.0057819      1.6332043      0              6.1396757      23.829778    
     16000   2.9489986      1.7586033      0              6.1799413      24.895934    
     16100   3.0575389      1.7427253      0              6.3267943      24.981614    
     16200   3.1172667      1.7496776      0              6.4232944      25.095124    
     16300   2.9359836      1.795787       0              6.197612       25.117529    
     16400   2.9930185      1.6019039      0              6.0892396      23.70804     
     16500   2.9710955      1.7092712      0              6.1637384      24.657838    
     16600   3.0682574      1.7120398      0              6.3121786      24.784943    
     16700   3.0973075      1.6521944      0              6.2958871      24.038087    
     16800   2.9683198      1.6809962      0              6.1313019      24.541571    
     16900   2.9489788      1.6875149      0              6.1088232      24.502991    
     17000   2.9763487      1.7375503      0              6.1998934      24.730972    
     17100   3.0063392      1.7465692      0              6.2538761      24.791849    
     17200   2.9545459      1.8154745      0              6.2451293      25.375101    
     17300   2.950389       1.744404       0              6.1678265      24.810916    
     17400   2.8786269      1.7199064      0              6.0357385      24.607875    
     17500   2.9737813      1.6827069      0              6.1412007      24.454684    
     17600   2.9814557      1.8518732      0              6.3218731      25.676789    
     17700   2.9735492      1.8553499      0              6.3134958      25.824196    
     17800   2.9469387      1.7722567      0              6.1905063      25.121632    
     17900   2.9952874      1.6239495      0              6.1146868      23.844307    
     18000   2.9945507      1.6648224      0              6.1544551      24.404294    
     18100   3.0929983      1.7870786      0              6.4243106      25.465314    
     18200   3.1009598      1.7339848      0              6.3831533      24.792627    
     18300   3.0399248      1.665812       0              6.2234726      24.229204    
     18400   2.9890438      1.6755184      0              6.1568948      24.24671     
     18500   2.9800934      1.7166749      0              6.1846323      24.654941    
     18600   3.0360172      1.8192012      0              6.3710034      25.609091    
     18700   3.1022675      1.786613       0              6.437742       25.152137    
     18800   3.0399705      1.7400145      0              6.2977438      24.957646    
     18900   2.9789109      1.7746206      0              6.2408051      25.198378    
     19000   3.0238132      1.6853783      0              6.2188834      24.413336    
     19100   2.9565294      1.746814       0              6.1794426      24.832954    
     19200   2.9832045      1.6892525      0              6.1618743      24.252477    
     19300   2.9581718      1.7865573      0              6.2216483      25.304374    
     19400   3.0981377      1.707268       0              6.3522055      24.626263    
     19500   3.039104       1.7591789      0              6.315609       25.081312    
     19600   2.9242876      1.7364623      0              6.1207518      24.719128    
     19700   2.9219705      1.7415506      0              6.1223662      24.882081    
     19800   3.0060508      1.7127827      0              6.2196572      24.523907    
     19900   3.017318       1.7323064      0              6.2560735      24.898933    
     20000   3.0187898      1.7110691      0              6.2370427      24.560661    
     20100   2.9931185      1.7128494      0              6.2003349      24.586261    
     20200   2.957324       1.6957125      0              6.1295324      24.391729    
     20300   2.9595261      1.7078982      0              6.1450197      24.688427    
     20400   3.0326126      1.7287377      0              6.2754355      24.692937    
     20500   2.9665179      1.8581795      0              6.3057836      26.014646    
     20600   2.9119151      1.8300459      0              6.1957858      25.498562    
     20700   2.9023418      1.6884685      0              6.0398554      24.225879    
     20800   3.0024468      1.6232446      0              6.1247157      23.99606     
     20900   3.0540606      1.7067041      0              6.2855581      24.619022    
     21000   3.0492883      1.7071955      0              6.2788946      24.633178    
     21100   3.0181738      1.6755278      0              6.200578       24.443304    
     21200   2.9100142      1.7448594      0              6.1077494      24.627446    
     21300   2.9326906      1.7225489      0              6.1194368      24.554621    
     21400   3.0453721      1.7808899      0              6.3467176      25.332963    
     21500   3.0759857      1.7495596      0              6.3612853      25.009287    
     21600   3.0088078      1.7153552      0              6.2263631      24.493806    
     21700   2.9657348      1.7063967      0              6.1528266      24.294004    
     21800   3.0322544      1.6514119      0              6.1975726      24.193299    
     21900   3.0108807      1.7334263      0              6.2475421      24.940387    
     22000   2.9962683      1.7655713      0              6.2577792      25.35636     
     22100   3.009584       1.7368909      0              6.2490625      24.925755    
     22200   3.0159681      1.7131436      0              6.2348867      24.627423    
     22300   2.9940625      1.7267274      0              6.2156282      24.723142    
     22400   2.9880358      1.6728797      0              6.1527449      24.330894    
     22500   2.9917679      1.6415611      0              6.1270218      24.037447    
     22600   3.0046048      1.6897357      0              6.1944422      24.223514    
     22700   3.0628932      1.7501213      0              6.3422178      25.090305    
     22800   3.0689818      1.7521235      0              6.3533484      25.125354    
     22900   2.8886792      1.8187974      0              6.1497004      25.43959     
     23000   3.0002349      1.6220515      0              6.1202063      23.544614    
     23100   3.0187703      1.6595989      0              6.1855432      24.169513    
     23200   2.9866668      1.7903195      0              6.2681322      25.296207    
     23300   3.0769185      1.7224098      0              6.3355339      24.815917    
     23400   3.0196674      1.6823684      0              6.2096578      24.280679    
     23500   2.8811551      1.7374234      0              6.0570458      24.585183    
     23600   2.9235825      1.7781971      0              6.1614295      24.794577    
     23700   2.9972016      1.7972343      0              6.2908416      25.394343    
     23800   3.0888535      1.6553159      0              6.2863338      24.013242    
     23900   3.0315616      1.6714652      0              6.2165873      24.243265    
     24000   2.9592923      1.6437024      0              6.0804734      23.820667    
     24100   2.8754377      1.6113004      0              5.922351       23.458721    
     24200   2.9366975      1.6667411      0              6.0696364      24.291585    
     24300   3.0330183      1.643445       0              6.1907511      24.145484    
     24400   3.040487       1.7201519      0              6.2786555      24.759699    
     24500   3.0156881      1.8019415      0              6.3232648      25.30568     
     24600   3.0142137      1.7302935      0              6.2494063      24.527127    
     24700   2.9155597      1.7158946      0              6.0870986      24.45382     
     24800   2.9302995      1.7245563      0              6.1178594      24.550815    
     24900   2.9681866      1.8171016      0              6.2672075      25.411479    
     25000   3.0007673      1.7708393      0              6.2697924      25.003385    
     25100   3.0271585      1.6756943      0              6.2142149      24.178808    
     25200   2.969928       1.6698632      0              6.1225799      24.055675    
     25300   2.9931089      1.6416445      0              6.1291157      24.195702    
     25400   3.1008775      1.6995347      0              6.3485798      24.464322    
     25500   3.0373372      1.7972523      0              6.3510334      25.18713     
     25600   2.9484343      1.8103645      0              6.2308565      25.542308    
     25700   2.9234742      1.7881494      0              6.1712195      25.404694    
     25800   2.9283516      1.788874       0              6.1792566      25.221371    
     25900   3.0048976      1.7110481      0              6.2161936      24.482377    
     26000   3.0270554      1.6938306      0              6.2321966      24.343935    
     26100   3.0018329      1.7282491      0              6.2287999      24.624266    
     26200   2.9828302      1.6989236      0              6.1709842      24.488218    
     26300   2.8965387      1.7111503      0              6.0538369      24.473417    
     26400   2.9131264      1.7395655      0              6.1071215      24.780713    
     26500   3.027226       1.7631683      0              6.3017901      25.177476    
     26600   3.041584       1.7501325      0              6.3102808      24.964667    
     26700   2.9700571      1.7366007      0              6.189511       24.673773    
     26800   3.0031748      1.6233121      0              6.1258747      23.746834    
     26900   2.9766624      1.7318141      0              6.1946275      24.717673    
     27000   3.1299503      1.762456       0              6.455089       25.167945    
     27100   3.0894736      1.7530739      0              6.3850215      25.063557    
     27200   2.9863272      1.7405843      0              6.2178878      24.934344    
     27300   3.012712       1.6224932      0              6.1393546      23.764504    
     27400   2.9756106      1.6834661      0              6.1447026      24.152863    
     27500   3.0179463      1.7925138      0              6.3172229      25.423588    
     27600   3.0608558      1.8075504      0              6.3965923      25.418571    
     27700   3.0672405      1.6934924      0              6.2921066      24.590255    
     27800   3.0262113      1.6662303      0              6.2033309      24.007459    
     27900   3.0100004      1.6772382      0              6.1900342      24.163582    
     28000   3.0163452      1.7081276      0              6.2304362      24.674064    
     28100   3.1148678      1.6529007      0              6.322921       24.29981     
     28200   3.0811054      1.7943339      0              6.4137353      25.365498    
     28300   3.060553       1.699537       0              6.2881248      24.490372    
     28400   2.9765845      1.685491       0              6.1481877      24.523988    
     28500   2.9445761      1.7613325      0              6.17604        25.072877    
     28600   3.0114372      1.7803605      0              6.2953107      25.133844    
     28700   3.0258896      1.7853454      0              6.3219636      25.204865    
     28800   2.9072146      1.7070657      0              6.0657583      24.420814    
     28900   2.9325785      1.6565571      0              6.053277       24.08151     
     29000   3.0167247      1.6883918      0              6.2112693      24.494568    
     29100   3.0387606      1.7517573      0              6.3076725      24.990703    
     29200   2.9680607      1.817378       0              6.2672952      25.594765    
     29300   2.9139644      1.7809505      0              6.1497628      25.084057    
     29400   2.9253541      1.6179738      0              6.0038624      23.778573    
     29500   2.9925316      1.6497869      0              6.1363925      24.126644    
     29600   3.0462388      1.7254886      0              6.2926156      24.796056    
     29700   3.0063674      1.7650994      0              6.2724487      25.047205    
     29800   2.9585591      1.7506298      0              6.1863016      24.948292    
     29900   2.9727777      1.689956       0              6.1469451      24.359456    
     30000   2.9471893      1.7640069      0              6.1826323      25.071428    
     30100   3.0818227      1.7427945      0              6.3632713      24.956911    
     30200   3.1347559      1.649459       0              6.3492969      24.158745    
     30300   3.0212951      1.6619535      0              6.1916833      24.168603    
     30400   3.019323       1.5998638      0              6.1266368      23.553328    
     30500   2.9981961      1.6771892      0              6.1722874      24.084882    
     30600   3.0056433      1.7323136      0              6.2385771      24.890012    
     30700   3.0603834      1.7283526      0              6.3166863      24.711157    
     30800   3.0565747      1.7332066      0              6.3158301      24.836049    
     30900   2.9362         1.745771       0              6.1479205      24.793397    
     31000   2.96952        1.6623312      0              6.1144363      24.152773    
     31100   3.0369826      1.6834746      0              6.2367242      24.391078    
     31200   3.0629876      1.7358702      0              6.3281082      24.908636    
     31300   3.0016735      1.7496275      0              6.2499393      24.8635      
     31400   2.8909954      1.6931967      0              6.0275724      24.18109     
     31500   2.9215268      1.7187141      0              6.0988645      24.431327    
     31600   3.0158512      1.6899571      0              6.211525       24.305789    
     31700   3.0118977      1.7541005      0              6.2697411      25.045549    
     31800   3.0687095      1.709711       0              6.3105276      24.629889    
     31900   3.0847921      1.6729353      0              6.2978641      24.249083    
     32000   2.9522398      1.6996701      0              6.1258675      24.415516    
     32100   2.9087803      1.7077615      0              6.0688015      24.600091    
     32200   2.9622954      1.7835297      0              6.2248033      25.198904    
     32300   3.0348426      1.747055       0              6.2970962      24.770168    
     32400   3.008777       1.7271225      0              6.2380843      24.598619    
     32500   2.9496294      1.7661439      0              6.1884276      24.970775    
     32600   3.0097676      1.6715681      0              6.1840151      24.061894    
     32700   3.0140049      1.7753243      0              6.2941241      25.020872    
     32800   3.0313413      1.8246131      0              6.3694048      25.481764    
     32900   3.0048822      1.7176308      0              6.2227532      24.561106    
     33000   2.9007611      1.7524208      0              6.1014379      24.82373     
     33100   2.9879658      1.6973091      0              6.1770694      24.616642    
     33200   2.9962322      1.7893869      0              6.2815407      25.35768     
     33300   3.0648399      1.6758672      0              6.2708823      24.401168    
     33400   2.9527042      1.6071028      0              6.0339965      23.461261    
     33500   2.925909       1.6285093      0              6.0152298      23.97075     
     33600   2.9730087      1.7127395      0              6.170075       24.69352     
     33700   3.0243525      1.741011       0              6.2753247      24.914127    
     33800   3.0591373      1.695827       0              6.2822923      24.502443    
     33900   3.0056957      1.6509444      0              6.1572865      24.126747    
     34000   2.9372993      1.6296638      0              6.0334613      23.511067    
     34100   3.0012469      1.6781198      0              6.177792       24.298251    
     34200   3.0015733      1.8277448      0              6.3279063      25.681047    
     34300   3.0222643      1.7609443      0              6.2921272      24.872079    
     34400   2.9694551      1.7142314      0              6.1662392      24.613651    
     34500   3.0229088      1.6043472      0              6.1364963      23.68904     
     34600   3.0480063      1.6770578      0              6.2468349      24.279058    
     34700   3.0370681      1.8543038      0              6.4076816      25.736233    
     34800   3.0439349      1.7646374      0              6.3283102      25.014515    
     34900   3.0389706      1.6133631      0              6.1695932      23.705718    
     35000   2.90103        1.804331       0              6.1537513      25.208982    
     35100   3.0279942      1.6818292      0              6.2216028      24.42925     
     35200   3.007317       1.7656205      0              6.2743933      24.973577    
     35300   3.0260954      1.7887943      0              6.325721       25.182671    
     35400   2.991888       1.7429761      0              6.2286168      24.912191    
     35500   2.9514289      1.6769344      0              6.1019162      24.148134    
     35600   2.980732       1.6738502      0              6.1427651      24.15234     
     35700   3.0302752      1.7720075      0              6.3152009      25.135913    
     35800   3.0727994      1.7220297      0              6.3289782      24.600099    
     35900   3.0189842      1.729067       0              6.2553322      24.983136    
     36000   2.9582322      1.7611739      0              6.1963555      24.840292    
     36100   2.9937474      1.7119159      0              6.2003443      24.532216    
     36200   2.9945236      1.7235963      0              6.2131885      24.607125    
     36300   3.0342099      1.6751287      0              6.2242212      24.244718    
     36400   3.0323452      1.7141458      0              6.2604427      24.599315    
     36500   3.0291548      1.7401101      0              6.2816237      25.091198    
     36600   3.0282686      1.7449075      0              6.2850924      24.839437    
     36700   2.9531644      1.7756033      0              6.203187       25.372307    
     36800   2.9777922      1.6552961      0              6.1198035      24.248661    
     36900   2.9629351      1.7114846      0              6.1537171      24.512282    
     37000   3.0764239      1.7316657      0              6.3440482      24.773381    
     37100   3.0704446      1.734117       0              6.337535       24.833875    
     37200   3.0264355      1.6965087      0              6.2339454      24.39166     
     37300   2.9509967      1.7660636      0              6.1903973      25.111587    
     37400   2.9801441      1.763406       0              6.2314394      24.985663    
     37500   3.065729       1.6968462      0              6.2931944      24.417656    
     37600   3.0178628      1.7343596      0              6.2589435      24.96797     
     37700   2.920691       1.7466461      0              6.1255435      24.771084    
     37800   2.9687875      1.6560038      0              6.1070106      24.200128    
     37900   3.0036183      1.76654        0              6.2697675      25.185632    
     38000   3.037763       1.7960367      0              6.3504563      25.191276    
     38100   2.9788007      1.7794335      0              6.2454528      25.128832    
     38200   2.9887509      1.7093802      0              6.1903174      24.570301    
     38300   3.0399078      1.6313631      0              6.1889983      23.764237    
     38400   2.9916533      1.731131       0              6.2164198      24.771752    
     38500   2.986229       1.7905279      0              6.2676842      25.030133    
     38600   3.045809       1.7825374      0              6.3490201      25.092204    
     38700   3.0632372      1.812938       0              6.4055503      25.636003    
     38800   3.0221757      1.7147209      0              6.245771       24.379961    
     38900   2.9093975      1.760423       0              6.1223884      25.050113    
     39000   2.9728487      1.7331916      0              6.1902873      24.597214    
     39100   3.0187074      1.7858017      0              6.3116518      25.295745    
     39200   3.0343723      1.7562379      0              6.305574       24.98476     
     39300   2.9572067      1.6580688      0              6.0917129      24.216344    
     39400   2.9178148      1.6767892      0              6.0513743      24.075727    
     39500   3.0204602      1.6614041      0              6.1898821      24.308861    
     39600   3.0367595      1.723853       0              6.2767681      24.569302    
     39700   2.9712478      1.7867596      0              6.2414551      25.270648    
     39800   3.0025999      1.7209808      0              6.2226816      24.770219    
     39900   2.9646949      1.7845036      0              6.2293745      25.204693    
     40000   3.0255156      1.7471337      0              6.2831912      24.936403    
     40100   3.0786742      1.6781728      0              6.2939292      24.543625    
     40200   2.9561048      1.7694579      0              6.20145        24.963125    
     40300   2.9507313      1.6879458      0              6.1118816      24.201854    
     40400   2.987463       1.6757382      0              6.1547447      24.138608    
     40500   3.0408942      1.780789       0              6.3399032      25.181238    
     40600   3.0256324      1.8526486      0              6.3888811      25.588936    
     40700   2.983053       1.7685137      0              6.2409083      25.131779    
     40800   3.0046139      1.6757939      0              6.1805141      24.235918    
     40900   2.9694044      1.7422785      0              6.1942102      24.737403    
     41000   3.0404703      1.7161497      0              6.2746283      24.664903    
     41100   3.0629558      1.7520879      0              6.3442783      25.00286     
     41200   2.937526       1.7510183      0              6.1551558      24.89867     
     41300   2.9424648      1.6765859      0              6.088128       24.269326    
     41400   2.9524773      1.7454922      0              6.1720456      24.863766    
     41500   3.0156055      1.7414312      0              6.2626307      24.71819     
     41600   3.0374021      1.7421777      0              6.2960561      24.847452    
     41700   3.0111201      1.7225825      0              6.2370573      24.623979    
     41800   2.8848368      1.6605345      0              5.9856767      24.047113    
     41900   2.8338333      1.7326107      0              5.9812852      24.754466    
     42000   2.9396528      1.734228       0              6.1415542      24.759893    
     42100   2.9734957      1.8236984      0              6.2817641      25.825961    
     42200   3.0631986      1.7607567      0              6.3533111      25.263302    
     42300   3.0182474      1.7559599      0              6.2811204      25.017095    
     42400   2.9828389      1.6595985      0              6.1316721      24.143426    
     42500   2.9280581      1.668922       0              6.0588645      24.128754    
     42600   3.0050337      1.7781609      0              6.2835105      25.107788    
     42700   3.0790748      1.7540802      0              6.3704372      25.264461    
     42800   3.0007098      1.7470324      0              6.2458993      24.911072    
     42900   2.9984524      1.6655833      0              6.1610657      24.116973    
     43000   2.9509043      1.7751653      0              6.1993604      25.080583    
     43100   3.0956851      1.752821       0              6.3940814      24.835803    
     43200   3.0885536      1.7933673      0              6.4239355      25.335937    
     43300   3.0528063      1.722796       0              6.2997695      24.764471    
     43400   2.99608        1.7499042      0              6.2418298      24.90493     
     43500   3.0338629      1.6348446      0              6.1834169      23.738455    
     43600   2.9750672      1.6533815      0              6.1138034      23.870055    
     43700   2.9266517      1.7142089      0              6.1020428      24.652375    
     43800   3.062122       1.6955542      0              6.2864945      24.605273    
     43900   3.055651       1.7738572      0              6.3550957      25.023103    
     44000   3.0207533      1.7114947      0              6.2404121      24.417071    
     44100   2.9634787      1.7001723      0              6.1432199      24.363989    
     44200   2.9776824      1.7004642      0              6.1648069      24.647101    
     44300   3.066991       1.6216645      0              6.2199048      23.79096     
     44400   2.9952998      1.7367915      0              6.2275474      24.712869    
     44500   3.0034862      1.7163425      0              6.2193719      24.605531    
     44600   3.0238527      1.6672586      0              6.2008228      24.040472    
     44700   2.9476188      1.7506915      0              6.1699608      24.770203    
     44800   2.968359       1.7642004      0              6.2145648      25.076058    
     44900   3.0298568      1.778993       0              6.3215591      25.242652    
     45000   3.0663907      1.7507414      0              6.3480816      25.099876    
     45100   2.9902231      1.7031574      0              6.186302       24.521491    
     45200   2.949364       1.6588345      0              6.0807203      23.949717    
     45300   2.9467496      1.7656417      0              6.1836079      24.937549    
     45400   3.0066446      1.7823613      0              6.290126       25.365764    
     45500   3.0116676      1.7656578      0              6.2809534      24.998832    
     45600   3.0001115      1.7165675      0              6.2145374      24.73867     
     45700   3.0171973      1.6503799      0              6.173966       23.916508    
     45800   2.9210208      1.7984752      0              6.177867       25.253232    
     45900   3.0115351      1.7001162      0              6.2152132      24.359714    
     46000   3.0177419      1.7000336      0              6.2244361      24.558625    
     46100   2.9930841      1.7406265      0              6.2280605      24.976792    
     46200   2.9962947      1.7328481      0              6.2250956      24.703263    
     46300   2.9688758      1.7563516      0              6.2074909      24.980761    
     46400   2.9850532      1.7380947      0              6.2134882      24.872354    
     46500   3.0207719      1.7276924      0              6.2566379      24.537147    
     46600   3.0498064      1.6855725      0              6.2580484      24.551552    
     46700   2.9026982      1.7819627      0              6.133884       25.119112    
     46800   2.9167041      1.6932017      0              6.0661215      24.48954     
     46900   2.9560417      1.8156082      0              6.2475057      25.524988    
     47000   3.0978004      1.6857777      0              6.3302094      24.398247    
     47100   2.9753825      1.7680624      0              6.2289569      25.096763    
     47200   2.9991794      1.666964       0              6.1635365      24.295765    
     47300   3.0307075      1.6884666      0              6.2323082      24.517851    
     47400   3.157069       1.6927066      0              6.4259977      24.621054    
     47500   3.1658438      1.7267994      0              6.4732463      24.949043    
     47600   3.0506843      1.6769679      0              6.25076        24.163154    
     47700   2.9996231      1.6990207      0              6.1962583      24.358488    
     47800   2.9191223      1.8238035      0              6.2003489      25.435792    
     47900   3.0554099      1.7096671      0              6.2905441      24.338715    
     48000   3.0426778      1.7768859      0              6.3386741      25.172187    
     48100   2.9879382      1.7280585      0              6.2077773      24.699064    
     48200   2.9616611      1.6421604      0              6.0824829      24.053615    
     48300   2.9632351      1.703902       0              6.1465842      24.481159    
     48400   3.0156279      1.7190803      0              6.2403134      24.725348    
     48500   3.0371748      1.6944027      0              6.2479403      24.777382    
     48600   2.997597       1.7643146      0              6.2585146      25.027894    
     48700   2.9672796      1.845428       0              6.2941741      25.544127    
     48800   3.0774562      1.6205204      0              6.2344506      23.837898    
     48900   2.9899394      1.5991354      0              6.0818545      23.45659     
     49000   2.9555891      1.6851493      0              6.1163682      24.546711    
     49100   3.0037131      1.7807204      0              6.28409        25.168712    
     49200   3.0337527      1.7372871      0              6.2856941      24.904088    
     49300   3.0002668      1.7454924      0              6.2436952      24.931975    
     49400   2.9904784      1.6922752      0              6.1758025      24.265159    
     49500   2.9157225      1.7218373      0              6.0932855      24.638089    
     49600   2.9991806      1.628745       0              6.1253192      23.694211    
     49700   3.0537945      1.7057996      0              6.2842547      24.389422    
     49800   2.9722567      1.7889198      0              6.2451279      25.130793    
     49900   2.9847689      1.6704699      0              6.1454371      24.263949    
     50000   2.9216456      1.6354344      0              6.0157629      23.960572    
Loop time of 11.5426 on 1 procs for 50000 steps with 2048 atoms

Performance: 748531.471 tau/day, 4331.779 timesteps/s, 8.871 Matom-step/s
99.7% CPU use with 1 MPI tasks x 1 OpenMP threads

MPI task timing breakdown:
Section |  min time  |  avg time  |  max time  |%varavg| %total
---------------------------------------------------------------
Pair    | 4.8319     | 4.8319     | 4.8319     |   0.0 | 41.86
Neigh   | 4.6171     | 4.6171     | 4.6171     |   0.0 | 40.00
Comm    | 0.49629    | 0.49629    | 0.49629    |   0.0 |  4.30
Output  | 0.0067963  | 0.0067963  | 0.0067963  |   0.0 |  0.06
Modify  | 1.2669     | 1.2669     | 1.2669     |   0.0 | 10.98
Other   |            | 0.3237     |            |       |  2.80

Nlocal:           2048 ave        2048 max        2048 min
Histogram: 1 0 0 0 0 0 0 0 0 0
Nghost:           1538 ave        1538 max        1538 min
Histogram: 1 0 0 0 0 0 0 0 0 0
Neighs:           9806 ave        9806 max        9806 min
Histogram: 1 0 0 0 0 0 0 0 0 0

Total # of neighbors = 9806
Ave neighs/atom = 4.7880859
Neighbor list builds = 4674
Dangerous builds = 0

unfix 1
dump           1 all atom ${run_steps} 3dWCA_T${final_temperature}_d${density}_N${run_steps}.lammpstrj
dump           1 all atom 100000 3dWCA_T${final_temperature}_d${density}_N${run_steps}.lammpstrj
dump           1 all atom 100000 3dWCA_T0.1_d${density}_N${run_steps}.lammpstrj
dump           1 all atom 100000 3dWCA_T0.1_d1.0_N${run_steps}.lammpstrj
dump           1 all atom 100000 3dWCA_T0.1_d1.0_N100000.lammpstrj
dump           2 all dcd ${thermo_time} 3dWCA_T${final_temperature}_d${density}_N${run_steps}.dcd
dump           2 all dcd 100 3dWCA_T${final_temperature}_d${density}_N${run_steps}.dcd
dump           2 all dcd 100 3dWCA_T0.1_d${density}_N${run_steps}.dcd
dump           2 all dcd 100 3dWCA_T0.1_d1.0_N${run_steps}.dcd
dump           2 all dcd 100 3dWCA_T0.1_d1.0_N100000.dcd
fix 1 all nvt temp ${initial_temperature} ${final_temperature} ${tau}
fix 1 all nvt temp 3 ${final_temperature} ${tau}
fix 1 all nvt temp 3 0.1 ${tau}
fix 1 all nvt temp 3 0.1 0.2

run ${run_steps}
run 100000
Generated 0 of 0 mixed pair_coeff terms from geometric mixing rule
Per MPI rank memory allocation (min/avg/max) = 3.311 | 3.311 | 3.311 Mbytes
   Step          Temp          E_pair         E_mol          TotEng         Press     
     50000   2.9216456      1.6354344      0              6.0157629      23.960572    
     50100   2.9729765      1.6719628      0              6.1292501      24.098778    
     50200   2.9901252      1.781487       0              6.2644848      25.144175    
     50300   3.003109       1.7643994      0              6.2668633      24.946786    
     50400   3.0455109      1.6261453      0              6.192181       24.083869    
     50500   2.9626484      1.6549941      0              6.0967969      24.102641    
     50600   2.9426165      1.6662798      0              6.0780493      24.09249     
     50700   3.0161279      1.7081544      0              6.2301372      24.44899     
     50800   3.0868139      1.7065946      0              6.3345546      24.534164    
     50900   3.0826193      1.6191645      0              6.2408356      23.850391    
     51000   2.9111452      1.7196536      0              6.0842392      24.50529     
     51100   2.9260286      1.7403698      0              6.1272696      24.607389    
     51200   2.952735       1.754186       0              6.1811259      24.809323    
     51300   2.9814607      1.6818363      0              6.1518437      24.313225    
     51400   2.8663469      1.6696385      0              5.9670594      24.266749    
     51500   2.8817188      1.6992995      0              6.019767       24.538586    
     51600   3.0006692      1.6641307      0              6.1629367      24.206951    
     51700   2.9081509      1.7770288      0              6.1371251      24.835954    
     51800   2.9465753      1.6320384      0              6.0497432      23.828332    
     51900   2.8676614      1.6658323      0              5.9652241      24.22386     
     52000   2.9802922      1.5133687      0              5.9816242      22.582977    
     52100   3.0095544      1.6517552      0              6.1638826      23.931151    
     52200   3.0104584      1.6984868      0              6.2119694      24.699068    
     52300   2.8629218      1.7836684      0              6.0759543      25.027385    
     52400   2.909602       1.6299245      0              5.9921964      23.77745     
     52500   2.9112334      1.6705339      0              6.0352517      24.041776    
     52600   2.9624626      1.646652       0              6.0881762      23.980737    
     52700   2.9151552      1.7227         0              6.0932976      24.574012    
     52800   2.8644024      1.7496166      0              6.0441223      24.738951    
     52900   2.9091701      1.6481358      0              6.0097603      23.864358    
     53000   2.9139805      1.6105296      0              5.9793661      23.570606    
     53100   2.8861888      1.6543031      0              5.9814724      23.649525    
     53200   2.9103519      1.6999998      0              6.063396       24.316542    
     53300   2.9647864      1.6592167      0              6.1042248      23.975631    
     53400   2.9153025      1.6338688      0              6.0046873      23.876164    
     53500   2.8483259      1.6114118      0              5.8818144      23.39553     
     53600   2.8654633      1.6092722      0              5.9053685      23.458869    
     53700   2.9878071      1.6620718      0              6.1415941      23.914119    
     53800   2.9802882      1.6666141      0              6.1348636      24.213674    
     53900   2.9085989      1.6292574      0              5.9900255      23.810282    
     54000   2.827653       1.6649046      0              5.904313       23.916837    
     54100   2.8631962      1.6283866      0              5.9210838      23.8082      
     54200   2.9376782      1.6473708      0              6.0517364      23.995988    
     54300   3.0216804      1.6602138      0              6.1905212      24.127229    
     54400   2.9186889      1.6372687      0              6.0131643      23.79817     
     54500   2.8797962      1.5937654      0              5.9113505      23.329985    
     54600   2.8461719      1.6381728      0              5.905346       23.777721    
     54700   2.8285163      1.7132244      0              5.9539271      24.45245     
     54800   2.8684973      1.7108777      0              6.0115227      24.387749    
     54900   2.8870346      1.6408784      0              5.9693158      23.640938    
     55000   2.7893939      1.6227704      0              5.8048183      23.529322    
     55100   2.7845258      1.617445       0              5.7921942      23.630332    
     55200   2.8406013      1.6789436      0              5.937765       24.184377    
     55300   2.9458486      1.5581524      0              5.9747677      22.908766    
     55400   2.831634       1.6582084      0              5.9035854      23.82478     
     55500   2.7863341      1.6798187      0              5.8572791      24.086869    
     55600   2.8583734      1.6035395      0              5.889006       23.431777    
     55700   2.917115       1.6331661      0              6.0067021      23.710777    
     55800   2.9232099      1.6582154      0              6.0408892      24.069566    
     55900   2.8198887      1.6296025      0              5.8573703      23.676718    
     56000   2.8105485      1.5820106      0              5.7957747      22.995621    
     56100   2.7737893      1.6831221      0              5.8417746      23.968504    
     56200   2.8547359      1.613535       0              5.893548       23.497154    
     56300   2.8557612      1.710357       0              5.9919072      24.427778    
     56400   2.9192881      1.6591092      0              6.0359032      23.99098     
     56500   2.7865647      1.675229       0              5.853035       24.151357    
     56600   2.8062736      1.561985       0              5.76934        22.999671    
     56700   2.7664284      1.6084938      0              5.7561102      23.227868    
     56800   2.8181216      1.6305119      0              5.8556303      23.667508    
     56900   2.9234971      1.6259228      0              6.0090271      23.474725    
     57000   2.7878131      1.7044879      0              5.8841657      24.148831    
     57100   2.8039435      1.5322685      0              5.73613        22.741557    
     57200   2.747017       1.6374263      0              5.7559397      23.57047     
     57300   2.8298995      1.5746756      0              5.8174522      23.103167    
     57400   2.8069208      1.5530969      0              5.7614223      23.065543    
     57500   2.7565618      1.4958705      0              5.6286942      22.278611    
     57600   2.7408796      1.5444861      0              5.653798       22.777428    
     57700   2.8170867      1.6460271      0              5.8695939      23.604303    
     57800   2.8357865      1.6110375      0              5.8626402      23.720716    
     57900   2.7470609      1.6070235      0              5.7256029      23.305092    
     58000   2.7312701      1.5562478      0              5.6511524      23.148539    
     58100   2.7887573      1.518173       0              5.6992665      22.439739    
     58200   2.8425725      1.5471263      0              5.808903       22.865157    
     58300   2.8423178      1.7039913      0              5.9653862      24.320129    
     58400   2.7966222      1.6458841      0              5.8387691      23.623254    
     58500   2.7606628      1.5463288      0              5.685301       22.870026    
     58600   2.7696058      1.5247794      0              5.6771596      22.64292     
     58700   2.7151088      1.6229654      0              5.69364        23.612732    
     58800   2.7536987      1.5869079      0              5.7154391      22.996272    
     58900   2.7553313      1.56786        0              5.6988389      23.133304    
     59000   2.7254071      1.51701        0              5.6031245      22.55247     
     59100   2.6900913      1.510163       0              5.5433296      22.37794     
     59200   2.7422941      1.5774188      0              5.6888515      22.996934    
     59300   2.7836456      1.607492       0              5.7809216      23.439666    
     59400   2.7896004      1.5347659      0              5.7171233      22.792319    
     59500   2.6852725      1.6150584      0              5.6410003      23.294645    
     59600   2.7403428      1.5208493      0              5.6293565      22.555753    
     59700   2.7046321      1.5642442      0              5.6192114      22.796406    
     59800   2.7380238      1.5528657      0              5.6578961      23.015809    
     59900   2.7945077      1.5461499      0              5.7358648      22.714696    
     60000   2.6882002      1.6686617      0              5.6989931      23.830807    
     60100   2.7018978      1.5060314      0              5.5568992      22.458427    
     60200   2.6528554      1.5315859      0              5.508926       22.558193    
     60300   2.7151842      1.523105       0              5.5938927      22.710288    
     60400   2.8083945      1.5350637      0              5.7455984      22.677173    
     60500   2.8126476      1.6234554      0              5.8403668      23.449077    
     60600   2.7028507      1.6034995      0              5.655796       23.151743    
     60700   2.6528348      1.5336462      0              5.5109553      22.421675    
     60800   2.6233861      1.5636713      0              5.496829       22.959111    
     60900   2.6709136      1.5848918      0              5.589306       22.757242    
     61000   2.7451087      1.5508481      0              5.6665006      22.899399    
     61100   2.6729966      1.5258554      0              5.5333925      22.600581    
     61200   2.6196948      1.4930189      0              5.4206425      22.098117    
     61300   2.6452079      1.5280507      0              5.4939252      22.456282    
     61400   2.7384094      1.4665376      0              5.5721461      21.996139    
     61500   2.709438       1.5139185      0              5.5760911      22.451399    
     61600   2.5792295      1.5293128      0              5.396268       22.457792    
     61700   2.5588933      1.4998109      0              5.3362767      22.149645    
     61800   2.6749691      1.4414684      0              5.4519628      21.728649    
     61900   2.6748162      1.5105888      0              5.520854       22.527097    
     62000   2.7138209      1.4653812      0              5.5341249      21.980037    
     62100   2.5832153      1.5932508      0              5.4661817      23.040375    
     62200   2.5821686      1.464857       0              5.3362186      21.667926    
     62300   2.4986273      1.4968962      0              5.2430072      22.134704    
     62400   2.617688       1.5232613      0              5.447876       22.453295    
     62500   2.6751137      1.5112829      0              5.5219941      22.385565    
     62600   2.6412299      1.5342106      0              5.494121       22.734713    
     62700   2.6195802      1.4678174      0              5.395269       21.774298    
     62800   2.5642588      1.4968101      0              5.3413203      22.261756    
     62900   2.6757814      1.5092748      0              5.520987       22.351325    
     63000   2.7171245      1.4812855      0              5.5549822      22.221466    
     63100   2.6285685      1.5059706      0              5.4468981      22.37405     
     63200   2.5948004      1.474992       0              5.3652921      21.991428    
     63300   2.617188       1.4146734      0              5.3385385      21.672729    
     63400   2.6585106      1.4453719      0              5.4311907      22.017973    
     63500   2.6943127      1.5673103      0              5.606806       23.121818    
     63600   2.7234802      1.4268594      0              5.5100851      21.589547    
     63700   2.6643996      1.3930616      0              5.3877095      21.475127    
     63800   2.5484628      1.5146369      0              5.3354646      22.443757    
     63900   2.5729381      1.518527       0              5.3760496      22.449485    
     64000   2.6969202      1.4388147      0              5.4822196      22.021078    
     64100   2.6370764      1.5255686      0              5.4792517      22.5827      
     64200   2.5756967      1.4231312      0              5.2847899      21.795743    
     64300   2.5237918      1.4846321      0              5.2684713      22.167115    
     64400   2.6378729      1.407519       0              5.3623962      21.482361    
     64500   2.6600425      1.4035164      0              5.3916319      21.492074    
     64600   2.5385213      1.4206404      0              5.2265631      21.711494    
     64700   2.4979178      1.4083344      0              5.1533815      21.400433    
     64800   2.5615723      1.4098833      0              5.2503655      21.456465    
     64900   2.5952132      1.4317471      0              5.3226661      21.436425    
     65000   2.5672053      1.4715754      0              5.320503       22.139492    
     65100   2.5867587      1.4358915      0              5.314135       21.798272    
     65200   2.5310761      1.4757589      0              5.2705193      21.981098    
     65300   2.5352394      1.4103597      0              5.2113619      21.257962    
     65400   2.4926181      1.4938846      0              5.2309862      22.045468    
     65500   2.5781875      1.4870105      0              5.3524034      22.057088    
     65600   2.5280857      1.5465758      0              5.3368527      22.765515    
     65700   2.524865       1.3998794      0              5.1853277      21.288162    
     65800   2.4720276      1.4462028      0              5.1524336      21.598095    
     65900   2.5106629      1.4352559      0              5.1994113      21.595047    
     66000   2.5463723      1.4070107      0              5.2247041      21.289321    
     66100   2.506904       1.4836424      0              5.2421623      22.005987    
     66200   2.5471972      1.4867501      0              5.3056803      22.175051    
     66300   2.578399       1.5140075      0              5.3797176      22.26336     
     66400   2.5702371      1.40586        0              5.2593331      21.118567    
     66500   2.4848875      1.4272652      0              5.1527765      21.555421    
     66600   2.5213952      1.3891567      0              5.1694027      21.206896    
     66700   2.5507094      1.3944348      0              5.2186308      21.423102    
     66800   2.5810066      1.4937839      0              5.3634034      22.203378    
     66900   2.5768205      1.533293       0              5.3966364      22.499151    
     67000   2.5153745      1.4400064      0              5.2112259      21.559778    
     67100   2.5119956      1.3815864      0              5.14774        20.966673    
     67200   2.4863253      1.4004526      0              5.1281195      21.343775    
     67300   2.4947834      1.4138255      0              5.1541734      21.435206    
     67400   2.5340359      1.4503395      0              5.2495373      21.722802    
     67500   2.5368206      1.4846028      0              5.2879757      22.074257    
     67600   2.4598881      1.4210571      0              5.1090875      21.386484    
     67700   2.4499333      1.3973723      0              5.0704779      20.94696     
     67800   2.4517713      1.4716989      0              5.1475601      21.798368    
     67900   2.522538       1.4348204      0              5.2167799      21.511744    
     68000   2.4634869      1.4319941      0              5.1254202      21.4035      
     68100   2.3582349      1.4396047      0              4.9752298      21.496431    
     68200   2.4463096      1.3814883      0              5.0491609      21.033102    
     68300   2.483401       1.4263346      0              5.1496173      21.397507    
     68400   2.5344857      1.3916863      0              5.1915586      21.21667     
     68500   2.4750403      1.3752086      0              5.0859562      21.015809    
     68600   2.3801343      1.382006       0              4.9504641      21.078963    
     68700   2.4612136      1.3132995      0              5.0033172      20.731025    
     68800   2.4576854      1.3963502      0              5.0810782      21.256861    
     68900   2.5266239      1.3512531      0              5.1393384      20.717403    
     69000   2.4508218      1.3663274      0              5.0407651      20.841528    
     69100   2.4201725      1.2899772      0              4.9184634      20.175074    
     69200   2.3958037      1.366193       0              4.9581438      20.839739    
     69300   2.4337748      1.3904838      0              5.0393636      21.142101    
     69400   2.4859274      1.3583746      0              5.085445       20.813544    
     69500   2.4307356      1.4195912      0              5.0639142      21.274752    
     69600   2.3773092      1.3218775      0              4.8861001      20.378638    
     69700   2.387847       1.3034382      0              4.8834597      20.125542    
     69800   2.3908082      1.4012769      0              4.9857381      21.074723    
     69900   2.4432017      1.3720382      0              5.0350514      20.893771    
     70000   2.4888229      1.2739497      0              5.0053612      20.054741    
     70100   2.4139716      1.3126503      0              4.9318396      20.365908    
     70200   2.33377        1.3427009      0              4.8416466      20.579329    
     70300   2.283967       1.3416231      0              4.7659007      20.441281    
     70400   2.3772814      1.356257       0              4.9204379      20.776233    
     70500   2.4310927      1.3878741      0              5.0327325      21.283037    
     70600   2.4371097      1.382676       0              5.0365556      21.016021    
     70700   2.3717008      1.3612859      0              4.9171         20.791692    
     70800   2.3910153      1.2716441      0              4.8564158      19.895816    
     70900   2.389875       1.310003       0              4.893065       20.239768    
     71000   2.4733797      1.35407        0              5.062328       20.826711    
     71100   2.3933802      1.4752607      0              5.0635781      21.806041    
     71200   2.422239       1.365024       0              4.9966085      20.640473    
     71300   2.3878054      1.3164569      0              4.8964161      20.268985    
     71400   2.3504001      1.3297698      0              4.8536485      20.234631    
     71500   2.40753        1.2969585      0              4.9064902      20.388901    
     71600   2.4125787      1.4022906      0              5.0193916      21.07291     
     71700   2.4264627      1.3770708      0              5.0149876      20.977529    
     71800   2.3414902      1.3130743      0              4.8235946      20.414252    
     71900   2.346855       1.2904042      0              4.8089677      19.983615    
     72000   2.3731392      1.3097058      0              4.8676765      20.112804    
     72100   2.3889741      1.3753103      0              4.9570216      20.808487    
     72200   2.4022253      1.3364267      0              4.9380051      20.514611    
     72300   2.2890423      1.3311522      0              4.7630391      20.545281    
     72400   2.2979043      1.3229213      0              4.7680946      20.396833    
     72500   2.3896661      1.2851103      0              4.8678592      19.867342    
     72600   2.3723781      1.3610643      0              4.9178939      20.834864    
     72700   2.3610143      1.3350788      0              4.874871       20.487295    
     72800   2.3472585      1.296847       0              4.8160155      20.160045    
     72900   2.3440306      1.2600444      0              4.7743734      19.860119    
     73000   2.2992338      1.3122875      0              4.7594542      20.211431    
     73100   2.354979       1.3219828      0              4.8527264      20.243686    
     73200   2.3952353      1.3722008      0              4.9632995      21.016305    
     73300   2.349882       1.3378204      0              4.8609224      20.55329     
     73400   2.313173       1.2931081      0              4.7611734      20.001021    
     73500   2.2988716      1.2994282      0              4.7460518      20.048526    
     73600   2.3101758      1.303373       0              4.7669447      20.262404    
     73700   2.3815024      1.2743109      0              4.8448202      19.981261    
     73800   2.3448643      1.3616915      0              4.8772705      20.588523    
     73900   2.2800533      1.3045912      0              4.7230011      19.975435    
     74000   2.2525874      1.279871       0              4.6571021      19.834841    
     74100   2.2893615      1.267733       0              4.7000986      19.654436    
     74200   2.3194572      1.3249703      0              4.8024573      20.368916    
     74300   2.3302359      1.3165187      0              4.8101659      20.282219    
     74400   2.2331206      1.2572937      0              4.605339       19.752296    
     74500   2.2418541      1.2578639      0              4.6190031      19.504328    
     74600   2.2912139      1.2974778      0              4.7326206      20.001369    
     74700   2.273097       1.3683958      0              4.7763765      20.616291    
     74800   2.3074156      1.2728758      0              4.7323092      19.73121     
     74900   2.2252959      1.2395878      0              4.5759019      19.46657     
     75000   2.2638739      1.1835498      0              4.5777026      19.029787    
     75100   2.2384159      1.2985879      0              4.6545723      20.158623    
     75200   2.2606045      1.3105692      0              4.6998202      20.121867    
     75300   2.2762752      1.2731939      0              4.6859396      19.718143    
     75400   2.2520124      1.2237722      0              4.6001414      19.31386     
     75500   2.1750224      1.2177985      0              4.4787391      19.051457    
     75600   2.2191323      1.2669592      0              4.5940323      19.568756    
     75700   2.2951745      1.2444183      0              4.6854989      19.465565    
     75800   2.2741756      1.2519469      0              4.6615445      19.892275    
     75900   2.2185832      1.2574556      0              4.5837055      19.644504    
     76000   2.194031       1.2599898      0              4.5494293      19.44749     
     76100   2.2873008      1.2400527      0              4.6693286      19.408991    
     76200   2.2720483      1.3445055      0              4.7509139      20.421426    
     76300   2.2454377      1.3104474      0              4.6769594      20.181169    
     76400   2.2566759      1.2255807      0              4.6089418      19.331388    
     76500   2.2222161      1.2594002      0              4.5910968      19.707439    
     76600   2.2039039      1.295741       0              4.5999826      19.843526    
     76700   2.2570567      1.2146845      0              4.5986165      18.891505    
     76800   2.216936       1.1969726      0              4.5207528      19.025577    
     76900   2.1827709      1.1717393      0              4.444297       18.633708    
     77000   2.187904       1.238153       0              4.5184066      19.343733    
     77100   2.2187957      1.3031522      0              4.6297206      19.793542    
     77200   2.217186       1.2703098      0              4.5944649      19.682938    
     77300   2.2082797      1.2379946      0              4.5487968      19.392674    
     77400   2.2210305      1.202045       0              4.531964       19.1497      
     77500   2.2378087      1.1553018      0              4.5103758      18.776196    
     77600   2.153528       1.1689552      0              4.3976699      18.634111    
     77700   2.1452354      1.1813255      0              4.3976074      19.006175    
     77800   2.2108475      1.2181699      0              4.5328218      19.131027    
     77900   2.1815505      1.2829989      0              4.5537268      19.807542    
     78000   2.2095801      1.2099643      0              4.5227162      19.066864    
     78100   2.1531662      1.1729442      0              4.4011166      18.688984    
     78200   2.1029627      1.1863582      0              4.339262       18.79342     
     78300   2.1852922      1.1717475      0              4.4480852      18.885623    
     78400   2.1635341      1.2517618      0              4.4954783      19.358188    
     78500   2.2105006      1.1777389      0              4.4918708      18.784964    
     78600   2.1385098      1.249149       0              4.4553474      19.498722    
     78700   2.1548543      1.2231118      0              4.4538149      19.282233    
     78800   2.204886       1.2152044      0              4.5209184      19.194803    
     78900   2.2541836      1.1888394      0              4.5684638      18.897535    
     79000   2.1627136      1.1963612      0              4.4388476      19.061719    
     79100   2.1228391      1.1993663      0              4.3820701      18.950707    
     79200   2.1528915      1.1930891      0              4.4208496      18.930667    
     79300   2.1490541      1.2458378      0              4.467845       19.549241    
     79400   2.2414991      1.2147684      0              4.5753753      19.219184    
     79500   2.2253987      1.2346976      0              4.5711657      19.384411    
     79600   2.1468571      1.1916526      0              4.4103658      18.929784    
     79700   2.1219281      1.190235       0              4.3715731      18.856924    
     79800   2.1179505      1.2082748      0              4.3836494      18.908694    
     79900   2.1408749      1.2601727      0              4.4699171      19.529991    
     80000   2.1998989      1.2181174      0              4.5163544      19.354869    
     80100   2.106546       1.1984357      0              4.3567117      18.721274    
     80200   2.085858       1.1858472      0              4.3131065      18.726784    
     80300   2.1571772      1.125023       0              4.3592088      18.124727    
     80400   2.1518192      1.1527448      0              4.3788976      18.368931    
     80500   2.0834379      1.1490059      0              4.2726368      18.466281    
     80600   2.0705257      1.0904451      0              4.1947171      17.757466    
     80700   2.0992897      1.1387721      0              4.2861692      18.265939    
     80800   2.105365       1.1997808      0              4.3562863      18.844033    
     80900   2.1017604      1.2083389      0              4.3594402      19.064837    
     81000   2.1110647      1.1718192      0              4.3368701      18.630154    
     81100   2.0322972      1.1975944      0              4.2445517      18.87119     
     81200   2.0251148      1.1550462      0              4.1912352      18.157334    
     81300   2.0746509      1.1993969      0              4.3098538      18.941971    
     81400   2.1039016      1.2496647      0              4.4039762      19.194154    
     81500   2.1161432      1.1543609      0              4.3270258      18.44995     
     81600   2.0792414      1.1146669      0              4.2320061      18.039047    
     81700   2.0668862      1.118368       0              4.2171835      18.098572    
     81800   2.0873852      1.1371044      0              4.2666534      18.385506    
     81900   2.1641702      1.1519356      0              4.3966059      18.753792    
     82000   2.1573737      1.1924324      0              4.4269129      18.818188    
     82100   2.0762657      1.1239695      0              4.2368473      18.279245    
     82200   2.0397422      1.1470776      0              4.2051971      18.262387    
     82300   2.0195378      1.1801004      0              4.2079279      18.556112    
     82400   2.0856462      1.1385454      0              4.2654872      18.308931    
     82500   2.0847641      1.1976785      0              4.3232978      18.679469    
     82600   2.0743803      1.1408762      0              4.2509274      18.331057    
     82700   2.0130272      1.1220644      0              4.1401308      17.969779    
     82800   2.0475881      1.086448       0              4.1563305      17.838209    
     82900   2.075039       1.0970714      0              4.2081101      17.889909    
     83000   2.0815514      1.1694601      0              4.2902627      18.575834    
     83100   2.1159491      1.1959328      0              4.3683067      18.823032    
     83200   2.0836441      1.1129325      0              4.2368725      18.152376    
     83300   1.995862       1.1472106      0              4.1395418      18.168152    
     83400   1.9923349      1.1349926      0              4.1220358      18.096566    
     83500   2.0546013      1.117176       0              4.1975731      18.072781    
     83600   2.0641013      1.1659367      0              4.2605769      18.544406    
     83700   2.053684       1.0919703      0              4.170992       17.844945    
     83800   1.9831184      1.0881481      0              4.0613731      17.852043    
     83900   2.0138726      1.0951146      0              4.1144484      17.642871    
     84000   2.030937       1.1558144      0              4.2007324      18.478391    
     84100   2.0465104      1.1294555      0              4.1977221      17.968957    
     84200   1.9954535      1.1077543      0              4.099473       17.925827    
     84300   1.9516503      1.1560831      0              4.0821291      18.367502    
     84400   1.9945588      1.1178129      0              4.1081902      18.103192    
     84500   2.0355151      1.0907182      0              4.1425         17.787177    
     84600   2.0166041      1.1328013      0              4.1562305      18.142446    
     84700   1.9760549      1.1066318      0              4.0692669      18.043533    
     84800   1.9460092      1.0721262      0              3.9897147      17.364474    
     84900   1.9808495      1.0529557      0              4.0227791      17.383627    
     85000   2.0120948      1.1217667      0              4.1384352      18.095014    
     85100   2.0655862      1.0984259      0              4.1952924      17.917127    
     85200   1.9915387      1.1352157      0              4.1210652      18.046356    
     85300   1.9755678      1.1105991      0              4.0725039      17.974838    
     85400   1.9536702      1.1363804      0              4.0654548      18.202328    
     85500   1.9882014      1.0971513      0              4.0779972      17.806818    
     85600   1.968685       1.09029        0              4.0418757      17.872068    
     85700   1.93031        1.0622986      0              3.9563498      17.428049    
     85800   1.941136       1.029409       0              3.9396913      17.141508    
     85900   1.9734999      1.1037497      0              4.0625541      17.975607    
     86000   2.0128198      1.0836948      0              4.1014502      17.646003    
     86100   1.9670973      1.0852164      0              4.0344215      17.620974    
     86200   1.9580783      1.0536068      0              3.9892901      17.4011      
     86300   1.9590494      1.0545692      0              3.9917084      17.318613    
     86400   1.9625397      1.0657828      0              4.008155       17.446403    
     86500   1.9975024      1.06466        0              4.0594506      17.438122    
[...]
    128500   0.72412453     0.33788608     0              1.4235425      7.6927353    
    128600   0.69841992     0.33804668     0              1.385165       7.827334     
    128700   0.69517037     0.32388123     0              1.3661276      7.4993037    
    128800   0.71459407     0.3216836      0              1.3930513      7.5002973    
    128900   0.72494465     0.34071996     0              1.427606       7.8980938    
    129000   0.72130353     0.3325635      0              1.4139905      7.6352526    
    129100   0.69794942     0.32825303     0              1.374666       7.6352752    
    129200   0.69678829     0.32351833     0              1.3681904      7.4762068    
    129300   0.69674004     0.32655568     0              1.3711554      7.5968839    
    129400   0.70225214     0.31336778     0              1.3662317      7.2676773    
    129500   0.68786856     0.3122994      0              1.3435984      7.4198871    
    129600   0.68822698     0.29695603     0              1.3287924      7.281687     
    129700   0.70079163     0.2972072      0              1.3478814      7.189063     
    129800   0.70084645     0.3220469      0              1.3728033      7.4481822    
    129900   0.700837       0.31735011     0              1.3680923      7.38853      
    130000   0.67105957     0.30967139     0              1.3157692      7.359613     
    130100   0.67862815     0.29975416     0              1.3171994      7.1747527    
    130200   0.68640879     0.29859969     0              1.3277101      7.1550344    
    130300   0.69059102     0.29957136     0              1.3349521      7.2050748    
    130400   0.66210007     0.3178539      0              1.3105191      7.3003385    
    130500   0.66439502     0.28068604     0              1.276792       6.8478799    
    130600   0.65068959     0.29682715     0              1.272385       7.076359     
    130700   0.66800496     0.29823575     0              1.2997539      7.2089439    
    130800   0.68262773     0.31313223     0              1.3365739      7.3610536    
    130900   0.66047012     0.31147363     0              1.3016951      7.3117278    
    131000   0.65355976     0.29349732     0              1.2733583      7.0121674    
    131100   0.65045406     0.28256088     0              1.2577656      6.8966376    
    131200   0.64296686     0.28331727     0              1.2472966      6.9289533    
    131300   0.63338395     0.29047752     0              1.2400895      6.9941357    
    131400   0.62297385     0.31450895     0              1.2485134      7.3147803    
    131500   0.65189228     0.30054645     0              1.2779074      7.1505697    
    131600   0.64686426     0.28893474     0              1.2587573      7.0374657    
    131700   0.6212718      0.28632149     0              1.2177742      6.9985179    
    131800   0.62508633     0.27954397     0              1.2167156      6.7903369    
    131900   0.62373705     0.28590579     0              1.2210545      6.9175842    
    132000   0.62676368     0.27386328     0              1.2135497      6.7903814    
    132100   0.610688       0.2679293      0              1.183514       6.6458594    
    132200   0.60912449     0.26106939     0              1.17431        6.5126061    
    132300   0.61368406     0.2768925      0              1.1969691      6.8152663    
    132400   0.63604232     0.27706841     0              1.230666       6.750643     
    132500   0.61820888     0.27844042     0              1.205301       6.8619231    
    132600   0.60569913     0.26955853     0              1.1776636      6.6134833    
    132700   0.59630854     0.26654048     0              1.1605665      6.6046624    
    132800   0.60149        0.25894147     0              1.1607359      6.4788972    
    132900   0.60911498     0.25486016     0              1.1680865      6.4637116    
    133000   0.6020391      0.25569632     0              1.158314       6.452688     
    133100   0.58294186     0.25229763     0              1.1262835      6.4031522    
    133200   0.58400953     0.2410597      0              1.1166463      6.1548354    
    133300   0.57807409     0.26812109     0              1.1348088      6.5871977    
    133400   0.59838269     0.27393906     0              1.1710748      6.7765286    
    133500   0.59266717     0.26383255     0              1.1523992      6.5692795    
    133600   0.59181349     0.24356523     0              1.130852       6.2447966    
    133700   0.56733544     0.25768201     0              1.1082696      6.3787286    
    133800   0.5720322      0.24190746     0              1.0995368      6.1643207    
    133900   0.56436062     0.24469415     0              1.0908217      6.236524     
    134000   0.56250936     0.23811014     0              1.0814622      6.0730969    
    134100   0.55545805     0.24246871     0              1.075249       6.1797732    
    134200   0.56250986     0.23985685     0              1.0832096      6.1907284    
    134300   0.55508931     0.25910279     0              1.0913302      6.467185     
    134400   0.56404568     0.24484854     0              1.0905039      6.172273     
    134500   0.54822123     0.23104124     0              1.0529716      6.0083846    
    134600   0.53343277     0.24164712     0              1.0414056      6.1186889    
    134700   0.54013114     0.24253424     0              1.0523353      6.1757154    
    134800   0.55097381     0.23971464     0              1.0657718      6.0403949    
    134900   0.55151429     0.22983557     0              1.0567031      5.9402064    
    135000   0.52731615     0.23027662     0              1.0208646      5.9592828    
    135100   0.53434223     0.2162624      0              1.0173844      5.6322932    
    135200   0.53515044     0.2194099      0              1.0217436      5.7748237    
    135300   0.52339383     0.23858792     0              1.0232953      6.1231718    
    135400   0.52310229     0.22918803     0              1.0134583      6.0027107    
    135500   0.52448082     0.20227059     0              0.98860767     5.4818081    
    135600   0.50424189     0.21915691     0              0.97515043     5.8160206    
    135700   0.51628523     0.21496754     0              0.98901724     5.7005793    
    135800   0.52656215     0.23182439     0              1.021282       5.9562959    
    135900   0.52556285     0.226935       0              1.0148943      5.9345052    
    136000   0.51900122     0.19992304     0              0.97804475     5.3565495    
    136100   0.50779934     0.20257036     0              0.96389744     5.4173022    
    136200   0.50251528     0.20237837     0              0.95578324     5.585334     
    136300   0.50376726     0.1981308      0              0.95341272     5.4361713    
    136400   0.50142029     0.19778974     0              0.94955292     5.4567038    
    136500   0.48119218     0.20706809     0              0.92850393     5.5846814    
    136600   0.48086573     0.1993835      0              0.92032991     5.4161307    
    136700   0.49002515     0.20687212     0              0.94155095     5.4908378    
    136800   0.50941727     0.19837411     0              0.9621269      5.4267729    
    136900   0.48977479     0.19925161     0              0.93355508     5.4013779    
    137000   0.47986042     0.19829388     0              0.91773304     5.4166944    
    137100   0.48144792     0.18572363     0              0.90754288     5.1099147    
    137200   0.46361261     0.19873115     0              0.89381051     5.3665282    
    137300   0.46688932     0.19531342     0              0.89530543     5.3150751    
    137400   0.47576637     0.18921249     0              0.90251359     5.2521326    
    137500   0.45922033     0.19691545     0              0.8854096      5.3811024    
    137600   0.45439337     0.18480339     0              0.86606064     5.1436272    
    137700   0.44986413     0.18627372     0              0.86074043     5.0855995    
    137800   0.4566969      0.17768086     0              0.86239171     5.0415461    
    137900   0.45748696     0.18790421     0              0.87379957     5.1599504    
    138000   0.45375606     0.18866187     0              0.86896362     5.1867901    
    138100   0.44571662     0.17615166     0              0.84440015     4.9606658    
    138200   0.43425501     0.18329142     0              0.83435588     5.0506252    
    138300   0.44296062     0.17914972     0              0.84326621     5.0468101    
    138400   0.44380548     0.19347412     0              0.85885729     5.317451     
    138500   0.44735682     0.18934444     0              0.86005201     5.2396506    
    138600   0.43345997     0.17570313     0              0.82557561     4.9215226    
    138700   0.42274896     0.17513849     0              0.80895229     4.8759377    
    138800   0.42288353     0.16852703     0              0.8025426      4.8465731    
    138900   0.41519865     0.17785588     0              0.80034976     4.9411128    
    139000   0.42089638     0.17639179     0              0.80742809     4.959943     
    139100   0.42894513     0.16767144     0              0.81077497     4.8041495    
    139200   0.41489813     0.16378748     0              0.78583079     4.7591662    
    139300   0.40408453     0.16592608     0              0.77175691     4.7689264    
    139400   0.40723977     0.16204046     0              0.77260184     4.7071888    
    139500   0.41488923     0.1606636      0              0.78269358     4.6148542    
    139600   0.42321002     0.16244613     0              0.7969512      4.6857998    
    139700   0.40346664     0.16173457     0              0.76663902     4.6716949    
    139800   0.39462343     0.15919089     0              0.75083701     4.6199986    
    139900   0.38779032     0.15644626     0              0.73784772     4.5757518    
    140000   0.38652154     0.15409817     0              0.73359739     4.4726554    
    140100   0.39296746     0.14962494     0              0.7387883      4.4868664    
    140200   0.39520794     0.1530373      0              0.74555975     4.5403067    
    140300   0.38583862     0.14784922     0              0.72632455     4.4170799    
    140400   0.36854813     0.1550497      0              0.70760197     4.524085     
    140500   0.37573355     0.1458553      0              0.70918043     4.3999321    
    140600   0.37938927     0.14359368     0              0.71239971     4.3194185    
    140700   0.3688958      0.14176072     0              0.69483422     4.308963     
    140800   0.36086016     0.13729646     0              0.67832239     4.1856764    
    140900   0.36079351     0.13911893     0              0.68004493     4.2344426    
    141000   0.369815       0.14103832     0              0.69548995     4.2303717    
    141100   0.36885127     0.14751538     0              0.70052213     4.4052521    
    141200   0.35271888     0.14018461     0              0.66900459     4.206864     
    141300   0.35244057     0.13158409     0              0.65998681     4.135063     
    141400   0.34979601     0.13246018     0              0.65689799     4.0797375    
    141500   0.34445122     0.13234223     0              0.64876678     4.0182096    
    141600   0.34325853     0.1185672      0              0.63320358     3.8200572    
    141700   0.33279035     0.13009279     0              0.62903457     4.0663656    
    141800   0.34948562     0.13148928     0              0.65546174     4.0556102    
    141900   0.34103545     0.13990594     0              0.65120934     4.1747897    
    142000   0.34241234     0.11645523     0              0.62982295     3.813132     
    142100   0.3274639      0.12488909     0              0.6158451      3.9778822    
    142200   0.32615849     0.12050328     0              0.60950213     3.8425969    
    142300   0.32194947     0.1214665      0              0.6041549      3.8056588    
    142400   0.31551557     0.1191754      0              0.59221766     3.8401527    
    142500   0.31258915     0.11043101     0              0.57908579     3.6089581    
    142600   0.31333906     0.11157326     0              0.58135235     3.6420629    
    142700   0.32218684     0.11949123     0              0.60253552     3.8070602    
    142800   0.31740167     0.11899152     0              0.59486155     3.8092651    
    142900   0.31159787     0.11238428     0              0.57955286     3.6801953    
    143000   0.30533187     0.11241158     0              0.57018575     3.652599     
    143100   0.30011944     0.10707324     0              0.55703258     3.532897     
    143200   0.29085282     0.11104248     0              0.54710868     3.6157627    
    143300   0.29705725     0.10407921     0              0.54944751     3.5307755    
    143400   0.2955333      0.10919495     0              0.55227844     3.577234     
    143500   0.28758427     0.1037974      0              0.53496318     3.4695097    
    143600   0.27982084     0.10160105     0              0.52112737     3.4075528    
    143700   0.28212145     0.099870257    0              0.52284581     3.4278716    
    143800   0.28789592     0.097642801    0              0.52927581     3.3333981    
    143900   0.28091052     0.098144155    0              0.51930419     3.3723069    
    144000   0.27100236     0.096389006    0              0.50269405     3.3170522    
    144100   0.27223638     0.093307153    0              0.50146233     3.2406581    
    144200   0.26971521     0.099925435    0              0.5043007      3.34845      
    144300   0.26519423     0.096592363    0              0.49418947     3.2749528    
    144400   0.25610695     0.095654207    0              0.47962705     3.3144485    
    144500   0.26029576     0.090898183    0              0.48115118     3.2187982    
    144600   0.2591218      0.095043183    0              0.48353609     3.252522     
    144700   0.25320131     0.091821165    0              0.47143768     3.1938226    
    144800   0.25122196     0.081634666    0              0.45828361     2.9648552    
    144900   0.2454608      0.086922293    0              0.45493371     2.9891896    
    145000   0.24650076     0.081998567    0              0.45156916     2.9690404    
    145100   0.23770851     0.080460484    0              0.43684915     2.9525641    
    145200   0.23011768     0.085541262    0              0.43054924     2.9657748    
    145300   0.23804146     0.081190266    0              0.43807811     2.9589471    
    145400   0.23772075     0.083878174    0              0.44028519     3.004338     
    145500   0.22637132     0.078694661    0              0.41808585     2.8609046    
    145600   0.22976347     0.072016952    0              0.41649387     2.6360142    
    145700   0.23114096     0.070772637    0              0.41731478     2.6960641    
    145800   0.22239013     0.07398346     0              0.40740577     2.7491681    
    145900   0.21660773     0.072928363    0              0.39768131     2.720923     
    146000   0.21548009     0.074026615    0              0.39708893     2.7632526    
    146100   0.2182728      0.068330424    0              0.39557975     2.5890716    
    146200   0.2077918      0.067174456    0              0.37870996     2.54312      
    146300   0.20844382     0.064402844    0              0.3769159      2.472264     
    146400   0.20747836     0.068602971    0              0.37966855     2.6345648    
    146500   0.20637216     0.063641501    0              0.37304858     2.4868831    
    146600   0.20049415     0.058401675    0              0.35899605     2.3433742    
    146700   0.1966541      0.060276924    0              0.35511404     2.3906237    
    146800   0.19765821     0.053667133    0              0.35000969     2.2521946    
    146900   0.18576528     0.061675879    0              0.34018774     2.4105588    
    147000   0.18246814     0.061350652    0              0.33491922     2.4282289    
    147100   0.18474346     0.057454234    0              0.33443411     2.3224715    
    147200   0.18521137     0.056729808    0              0.3344112      2.3258497    
    147300   0.17982221     0.059575915    0              0.32917753     2.3755649    
    147400   0.17825053     0.053908583    0              0.32115382     2.233239     
    147500   0.17333883     0.054094406    0              0.31397569     2.2179576    
    147600   0.17071943     0.052449081    0              0.30840319     2.1698944    
    147700   0.16595311     0.053646505    0              0.30245462     2.176345     
    147800   0.16624887     0.047999102    0              0.29725064     2.0292144    
    147900   0.16331747     0.047365794    0              0.29222238     2.0550326    
    148000   0.15992963     0.04747313     0              0.28725043     2.0434064    
    148100   0.15786273     0.044441876    0              0.28112035     1.945125     
    148200   0.1539108      0.043639064    0              0.27439254     1.9334426    
    148300   0.15083823     0.043042849    0              0.26918971     1.9310173    
    148400   0.1485285      0.042026807    0              0.26471077     1.8970904    
    148500   0.14335271     0.044501836    0              0.2594259      1.9500734    
    148600   0.1414034      0.04283619     0              0.25483773     1.9018829    
    148700   0.14040641     0.039609118    0              0.2501159      1.8252179    
    148800   0.13738573     0.03841252     0              0.24439049     1.7480295    
    148900   0.13370231     0.037456127    0              0.23791166     1.723474     
    149000   0.1309911      0.03537063     0              0.23176133     1.6720366    
    149100   0.1253714      0.038164527    0              0.2261298      1.7133712    
    149200   0.126657       0.030651761    0              0.2205445      1.5193994    
    149300   0.12276794     0.031000967    0              0.21506296     1.5627038    
    149400   0.11894928     0.031522728    0              0.20985953     1.5232619    
    149500   0.11404293     0.033242067    0              0.20422293     1.5622627    
    149600   0.1137281      0.028732651    0              0.1992415      1.4452104    
    149700   0.11155525     0.026275688    0              0.19352686     1.3965044    
    149800   0.10654596     0.028405231    0              0.18814613     1.4077972    
    149900   0.10346995     0.027905847    0              0.18303498     1.4305936    
    150000   0.10206097     0.02519568     0              0.17821239     1.3270536    
Loop time of 19.1779 on 1 procs for 100000 steps with 2048 atoms

Performance: 901037.784 tau/day, 5214.339 timesteps/s, 10.679 Matom-step/s
99.1% CPU use with 1 MPI tasks x 1 OpenMP threads

MPI task timing breakdown:
Section |  min time  |  avg time  |  max time  |%varavg| %total
---------------------------------------------------------------
Pair    | 8.6573     | 8.6573     | 8.6573     |   0.0 | 45.14
Neigh   | 6.351      | 6.351      | 6.351      |   0.0 | 33.12
Comm    | 0.86058    | 0.86058    | 0.86058    |   0.0 |  4.49
Output  | 0.14038    | 0.14038    | 0.14038    |   0.0 |  0.73
Modify  | 2.5544     | 2.5544     | 2.5544     |   0.0 | 13.32
Other   |            | 0.6142     |            |       |  3.20

Nlocal:           2048 ave        2048 max        2048 min
Histogram: 1 0 0 0 0 0 0 0 0 0
Nghost:           1550 ave        1550 max        1550 min
Histogram: 1 0 0 0 0 0 0 0 0 0
Neighs:          10500 ave       10500 max       10500 min
Histogram: 1 0 0 0 0 0 0 0 0 0

Total # of neighbors = 10500
Ave neighs/atom = 5.1269531
Neighbor list builds = 6428
Dangerous builds = 0
Total wall time: 0:00:30
