
Host: cm002.hpc.nyu.edu

Timers On : Thu Nov  7 14:50:41 2024
Timers Off: Thu Nov  7 14:50:41 2024

Wall Time:        0.37 seconds

                                                       Time (seconds)
Module                                       User      System        Wall        Calls

--------------------------------------------------------------------------------------

**************************************************************************************
