#     Step Nr.          Time[fs]        Kin.[a.u.]          Temp[K]            Pot.[a.u.]        Cons Qty[a.u.]        UsedTime[s]
         0            0.000000         0.273612846       300.000000000     -1102.629448594     -1102.355835748         0.000000000
         1            0.500000         0.279633819       306.601634918     -1102.634728487     -1102.356032711      1043.833025593
         2            1.000000         0.278176228       305.003473713     -1102.643688340     -1102.356285322        74.913336128
         3            1.500000         0.280393422       307.434492997     -1102.653080703     -1102.356547289        71.061370701
         4            2.000000         0.282889483       310.171274159     -1102.655862600     -1102.356593452        71.007408794
         5            2.500000         0.294372846       322.762089256     -1102.653391721     -1102.356505399        73.055345919
         6            3.000000         0.293202260       321.478612092     -1102.644027094     -1102.356292113        73.682404343
         7            3.500000         0.275739443       302.331685377     -1102.631056927     -1102.356023130        72.776330270
         8            4.000000         0.264614578       290.133941925     -1102.619771042     -1102.355795899        77.964400116
         9            4.500000         0.268857948       294.786540953     -1102.613634927     -1102.355689469        72.858402155
        10            5.000000         0.262607548       287.933354685     -1102.612082629     -1102.355666725       480.461474206
        11            5.500000         0.288697192       316.539076467     -1102.616775792     -1102.355783250        74.950383399
        12            6.000000         0.295096611       323.555654134     -1102.622813260     -1102.355937950        75.680351742
        13            6.500000         0.289353988       317.259214176     -1102.629250655     -1102.356081233        72.799375523
        14            7.000000         0.287416783       315.135185470     -1102.637410482     -1102.356246228        73.747304842
        15            7.500000         0.310165102       340.077346930     -1102.641761748     -1102.356328622        69.324319717
        16            8.000000         0.323802738       355.030192820     -1102.645349103     -1102.356402515        74.602384239
        17            8.500000         0.301956868       331.077513241     -1102.645418760     -1102.356418530        79.243325133
        18            9.000000         0.286912673       314.582459298     -1102.641734958     -1102.356310656        71.960327439
        19            9.500000         0.276541909       303.211541919     -1102.635703652     -1102.356123440        77.705393020
        20           10.000000         0.260847091       286.003119536     -1102.628436222     -1102.355915126       518.303479470
        21           10.500000         0.250829117       275.019014031     -1102.621372875     -1102.355688604        74.301294561
        22           11.000000         0.252589683       276.949368713     -1102.619839890     -1102.355630752        72.190310586
        23           11.500000         0.254712048       279.276413739     -1102.626571548     -1102.355823251        69.029344764
        24           12.000000         0.265639894       291.258138723     -1102.636526005     -1102.356020668        72.169241756
        25           12.500000         0.277078124       303.799469221     -1102.645826859     -1102.356189502        72.258357368
        26           13.000000         0.276140999       302.771967344     -1102.652591961     -1102.356272544        71.529259067
        27           13.500000         0.297663960       326.370597939     -1102.655384720     -1102.356219451        71.059317585
        28           14.000000         0.292250721       320.435307920     -1102.655692042     -1102.356103565        71.317343768
        29           14.500000         0.281400579       308.538780420     -1102.654888372     -1102.356028025        71.309252657
        30           15.000000         0.286612223       314.253034546     -1102.651854052     -1102.355941964       555.082454443
        31           15.500000         0.301188497       330.235039789     -1102.649497290     -1102.355883179        74.062304143
        32           16.000000         0.299504682       328.388838219     -1102.646731419     -1102.355818637        71.687376779
        33           16.500000         0.291057519       319.127033606     -1102.645976761     -1102.355750903        79.397350948
        34           17.000000         0.291210761       319.295053981     -1102.647476574     -1102.355705892        77.850377645
        35           17.500000         0.303751951       333.045713180     -1102.652982102     -1102.355823547        74.449379902
        36           18.000000         0.299220135       328.076849935     -1102.659956618     -1102.356048442        71.105295338
        37           18.500000         0.316528355       347.054270078     -1102.662878593     -1102.356180240        79.067416795
        38           19.000000         0.312059887       342.154864508     -1102.660507582     -1102.356202008        73.806319039
        39           19.500000         0.316171730       346.663252967     -1102.656115673     -1102.356078685        77.725365601
        40           20.000000         0.299355453       328.225217601     -1102.648878514     -1102.355890093       495.798389088
        41           20.500000         0.290515955       318.533241422     -1102.643145712     -1102.355773629        75.447324581
        42           21.000000         0.292335239       320.527976607     -1102.641775355     -1102.355839829        74.952385239
        43           21.500000         0.292864229       321.107981598     -1102.641696945     -1102.355896983        73.845309455
        44           22.000000         0.298441806       327.223458585     -1102.641498294     -1102.355927731        72.981384605
        45           22.500000         0.281584966       308.740950017     -1102.641249503     -1102.355973007        75.259313986
        46           23.000000         0.268647469       294.555763713     -1102.638733432     -1102.355935123        70.285380691
        47           23.500000         0.272321768       298.584410955     -1102.640558486     -1102.355980954        76.271331578
        48           24.000000         0.280027628       307.033422556     -1102.643886369     -1102.356039317        77.429368921
        49           24.500000         0.277870189       304.667920802     -1102.647866085     -1102.356127491        74.161383722
        50           25.000000         0.275189966       301.729217684     -1102.650936078     -1102.356256634       642.771057189
        51           25.500000         0.260569407       285.698655714     -1102.652308206     -1102.356346909        72.035345703
        52           26.000000         0.260067903       285.148786103     -1102.653011744     -1102.356342919        76.841317561
        53           26.500000         0.259523824       284.552236394     -1102.650868573     -1102.356222289        78.315371808
        54           27.000000         0.258216561       283.118901724     -1102.649712215     -1102.356088336        76.026392721
        55           27.500000         0.252322957       276.656919568     -1102.649573181     -1102.356007795        78.690827951
        56           28.000000         0.250219224       274.350303126     -1102.654470790     -1102.356129352        71.262884170
        57           28.500000         0.266792766       292.522193685     -1102.663219866     -1102.356395973        76.961313650
        58           29.000000         0.270022295       296.063177828     -1102.667565255     -1102.356510507        77.947400246
        59           29.500000         0.272968396       299.293400090     -1102.671480487     -1102.356565130        73.152296405
        60           30.000000         0.276980269       303.692176296     -1102.671991386     -1102.356537916       554.545592651
        61           30.500000         0.274619786       301.104049797     -1102.671363550     -1102.356500826        74.525319602
        62           31.000000         0.274218381       300.663932521     -1102.668392698     -1102.356435724        70.962370090
        63           31.500000         0.278232801       305.065502826     -1102.666314114     -1102.356430160        70.338290136
        64           32.000000         0.291317859       319.412480537     -1102.662998567     -1102.356351195        77.765402682
        65           32.500000         0.287118339       314.807959572     -1102.660598886     -1102.356288021        76.692328628
        66           33.000000         0.277406894       304.159944898     -1102.656416776     -1102.356161111        74.062345419
        67           33.500000         0.269359451       295.336408691     -1102.654625485     -1102.356095346        80.143414840
        68           34.000000         0.284279324       311.695150794     -1102.655748156     -1102.356119225        76.290330779
        69           34.500000         0.307167002       336.790110299     -1102.663050205     -1102.356274076        74.712384705
        70           35.000000         0.309877738       339.762269572     -1102.668570830     -1102.356387568       642.044033419
        71           35.500000         0.306403989       335.953513258     -1102.670562621     -1102.356379401        72.229327112
        72           36.000000         0.294675470       323.093898242     -1102.671396058     -1102.356341667        76.640332650
        73           36.500000         0.304358645       333.710916780     -1102.670834857     -1102.356309045        72.337347914
        74           37.000000         0.291807604       319.949456255     -1102.670878157     -1102.356269137        76.394379728
        75           37.500000         0.308475946       338.225288705     -1102.673067447     -1102.356292656        74.050331216
        76           38.000000         0.283414248       310.746646682     -1102.675533624     -1102.356355391        70.806368075
        77           38.500000         0.281646563       308.808486783     -1102.678692285     -1102.356429445        73.710308012
        78           39.000000         0.287676450       315.419895249     -1102.682841958     -1102.356525077        72.469332345
        79           39.500000         0.296160721       324.722386508     -1102.682175598     -1102.356498364        73.630389158
        80           40.000000         0.285683813       313.235088653     -1102.677974318     -1102.356356637       479.895282522
        81           40.500000         0.307988658       337.691007621     -1102.673529462     -1102.356219005        79.175374258
        82           41.000000         0.283636192       310.989995645     -1102.670246716     -1102.356145174        73.280323975
        83           41.500000         0.292098231       320.268111453     -1102.671499341     -1102.356216322        70.789376978
        84           42.000000         0.319349960       350.147990617     -1102.673448769     -1102.356302368        73.542311691
        85           42.500000         0.324155512       355.416988733     -1102.673504057     -1102.356347537        71.106342752
        86           43.000000         0.300808653       329.818564681     -1102.671330785     -1102.356328113        76.445406258
        87           43.500000         0.297078691       325.728885646     -1102.670057303     -1102.356340372        75.995318718
        88           44.000000         0.300955400       329.979463577     -1102.669580757     -1102.356351231        72.387338012
        89           44.500000         0.292778428       321.013906599     -1102.667336026     -1102.356316568        76.035395578
        90           45.000000         0.274898758       301.409925937     -1102.662884544     -1102.356238183       477.563250910
        91           45.500000         0.273692113       300.086912076     -1102.659033483     -1102.356178724        77.274373315
        92           46.000000         0.263519393       288.933136856     -1102.657525460     -1102.356128008        75.866315238
        93           46.500000         0.271944812       298.171101599     -1102.657041021     -1102.356118619        76.313411247
        94           47.000000         0.261193256       286.382668675     -1102.659305313     -1102.356168408        72.266308915
        95           47.500000         0.268739647       294.656831479     -1102.662257239     -1102.356248589        73.569347557
        96           48.000000         0.277668876       304.447192793     -1102.659258383     -1102.356183994        74.890393898
        97           48.500000         0.283957697       311.342506708     -1102.654190135     -1102.356020721        75.322316367
        98           49.000000         0.275837644       302.439357539     -1102.649218764     -1102.355862121        70.945372406
        99           49.500000         0.271452640       297.631464531     -1102.647594551     -1102.355828560        77.424325325
       100           50.000000         0.259610339       284.647095630     -1102.650520153     -1102.355935729       502.796422269
       101           50.500000         0.269993665       296.031786956     -1102.655543128     -1102.356078933        73.372343838
       102           51.000000         0.273117442       299.456819300     -1102.661215689     -1102.356201154        75.232324339
       103           51.500000         0.272037750       298.273002339     -1102.662388408     -1102.356193925        74.697388384
       104           52.000000         0.271881612       298.101806459     -1102.660090195     -1102.356086814        72.361305270
       105           52.500000         0.261329875       286.532462963     -1102.656857315     -1102.355953450        75.786358397
       106           53.000000         0.257851077       282.718170420     -1102.658945705     -1102.356019583        74.074388359
       107           53.500000         0.267209384       292.978989624     -1102.663842534     -1102.356194617        76.326323576
       108           54.000000         0.273131830       299.472595149     -1102.669023867     -1102.356369503        73.899396252
       109           54.500000         0.279496678       306.451267894     -1102.674150739     -1102.356461531        77.029318660
       110           55.000000         0.269132455       295.087521460     -1102.673751209     -1102.356425879       438.046112303
       111           55.500000         0.265321275       290.908791903     -1102.669773159     -1102.356314786        74.565353628
       112           56.000000         0.277186419       303.918208075     -1102.664105670     -1102.356152559        74.449330885
       113           56.500000         0.266558642       292.265491162     -1102.660314495     -1102.356062526        73.340362456
       114           57.000000         0.280536149       307.590985112     -1102.656732764     -1102.356020483        75.978403840
       115           57.500000         0.282306491       309.532058374     -1102.656574487     -1102.356046989        76.022340946
       116           58.000000         0.276445203       303.105509344     -1102.655533039     -1102.356057184        81.932438564
       117           58.500000         0.269101032       295.053067724     -1102.657561844     -1102.356124044        77.885349035
       118           59.000000         0.278950016       305.851885600     -1102.659062945     -1102.356186541        75.966393676
       119           59.500000         0.294719772       323.142473297     -1102.658528241     -1102.356217954        74.298324242
       120           60.000000         0.290998392       319.062204390     -1102.655979178     -1102.356187313       452.097168081
       121           60.500000         0.289410294       317.320949829     -1102.654228474     -1102.356152654        73.922351994
       122           61.000000         0.293512506       321.818778240     -1102.654109831     -1102.356151272        72.750332173
       123           61.500000         0.289798790       317.746912283     -1102.653635858     -1102.356160746        76.330350596
       124           62.000000         0.290653255       318.683782529     -1102.653659111     -1102.356198626        72.207380861
       125           62.500000         0.293504719       321.810240661     -1102.655324883     -1102.356286394        78.583342426
       126           63.000000         0.289107767       316.989247313     -1102.655456745     -1102.356322046        72.968359537
       127           63.500000         0.294780902       323.209498694     -1102.654167649     -1102.356305419        77.677365195
       128           64.000000         0.277753610       304.540099089     -1102.648018535     -1102.356152763        74.552340910
       129           64.500000         0.272443653       298.718050181     -1102.641070811     -1102.355999393        75.696394742
       130           65.000000         0.271228323       297.385514249     -1102.637696521     -1102.355926513       480.481299609
       131           65.500000         0.275557079       302.131734360     -1102.638538183     -1102.355950547        75.864337087
       132           66.000000         0.285389151       312.912008988     -1102.644284875     -1102.356092329        76.353404220
       133           66.500000         0.292997469       321.254071339     -1102.648624646     -1102.356233841        73.975318704
       134           67.000000         0.294247756       322.624936363     -1102.650661681     -1102.356313493        74.515366256
       135           67.500000         0.300078568       329.018069689     -1102.651084352     -1102.356309325        75.032390304
       136           68.000000         0.302756321       331.954064659     -1102.649784365     -1102.356222999        77.123341482
       137           68.500000         0.297596561       326.296698897     -1102.647359811     -1102.356156656        74.656398125
       138           69.000000         0.273927561       300.345066394     -1102.645769829     -1102.356207648        80.443354901
       139           69.500000         0.267163874       292.929091311     -1102.643835930     -1102.356259859        74.036357515
       140           70.000000         0.278498842       305.357200793     -1102.644009474     -1102.356288923       441.487147123
       141           70.500000         0.264609756       290.128654227     -1102.640916239     -1102.356210461        79.344342962
       142           71.000000         0.275848792       302.451580456     -1102.635774083     -1102.356094080        75.835361544
       143           71.500000         0.257052117       281.842158324     -1102.632946463     -1102.356075802        76.152407471
       144           72.000000         0.282505137       309.749861274     -1102.631876147     -1102.356088042        74.296313938
       145           72.500000         0.285412026       312.937090135     -1102.632540281     -1102.356152565        74.230356544
       146           73.000000         0.278504406       305.363300670     -1102.634513394     -1102.356274715        71.559368517
       147           73.500000         0.279110664       306.028026236     -1102.636342969     -1102.356431654        72.360315386
       148           74.000000         0.292500076       320.708709662     -1102.634719075     -1102.356475181        76.307414114
       149           74.500000         0.296903692       325.537010211     -1102.627935583     -1102.356328849        70.871288832
       150           75.000000         0.294694717       323.115002180     -1102.618372039     -1102.356041840       422.459055420
       151           75.500000         0.285454708       312.983888441     -1102.610707746     -1102.355830728        87.081369158
       152           76.000000         0.274948938       301.464944640     -1102.605851609     -1102.355771048        73.755397033
       153           76.500000         0.269066412       295.015108935     -1102.603421611     -1102.355775819        75.666320097
       154           77.000000         0.252638696       277.003108757     -1102.602446022     -1102.355782216        73.515362579
       155           77.500000         0.252647810       277.013101395     -1102.604834151     -1102.355809262        74.586386301
       156           78.000000         0.248309625       272.256543614     -1102.609458628     -1102.355888298        76.339336187
       157           78.500000         0.263643246       289.068934214     -1102.618092984     -1102.356068239        76.084359065
       158           79.000000         0.280238876       307.265043561     -1102.626226479     -1102.356274483        82.686430179
       159           79.500000         0.291873840       320.022079840     -1102.629618419     -1102.356369292        73.153320905
       160           80.000000         0.292840236       321.081675425     -1102.629537860     -1102.356366097       481.596333999
       161           80.500000         0.275709444       302.298793631     -1102.624362509     -1102.356219823        78.380373254
       162           81.000000         0.275928971       302.539491705     -1102.618502255     -1102.356033296        76.529330909
       163           81.500000         0.280755945       307.831977660     -1102.614171334     -1102.355879773        73.348354291
       164           82.000000         0.272626752       298.918808173     -1102.615104811     -1102.355867588        75.589390904
       165           82.500000         0.267272391       293.048073139     -1102.617988394     -1102.355932335        77.082336262
       166           83.000000         0.264907763       290.455401376     -1102.625436236     -1102.356139894        77.521405082
       167           83.500000         0.275420911       301.982434379     -1102.634211182     -1102.356366479        75.685329720
       168           84.000000         0.282405050       309.640122482     -1102.638226653     -1102.356462593        73.193348110
       169           84.500000         0.274897739       301.408808364     -1102.638711398     -1102.356486486        75.461395588
       170           85.000000         0.283703054       311.063305139     -1102.637262371     -1102.356480571       495.447362181
       171           85.500000         0.261963500       287.227193876     -1102.633265789     -1102.356423526        78.620346062
       172           86.000000         0.259472849       284.496345445     -1102.629518237     -1102.356379038        84.360411283
       173           86.500000         0.267708242       293.525958217     -1102.627344047     -1102.356343868        80.650360316
       174           87.000000         0.268115341       293.972317144     -1102.623903783     -1102.356270201        77.042397257
       175           87.500000         0.254198932       278.713813395     -1102.623240174     -1102.356269032        77.494349249
       176           88.000000         0.258181565       283.080530240     -1102.622985675     -1102.356292320        76.603361432
       177           88.500000         0.259792583       284.846914478     -1102.622778382     -1102.356273750        70.280371241
