 DBCSR| CPU Multiplication driver                                           XSMM
 DBCSR| Multrec recursion limit                                              512
 DBCSR| Multiplication stack size                                           1000
 DBCSR| Maximum elements for images                                    UNLIMITED
 DBCSR| Multiplicative factor virtual images                                   1
 DBCSR| Use multiplication densification                                       T
 DBCSR| Multiplication size stacks                                             3
 DBCSR| Use memory pool for CPU allocation                                     F
 DBCSR| Number of 3D layers                                               SINGLE
 DBCSR| Use MPI memory allocation                                              F
 DBCSR| Use RMA algorithm                                                      F
 DBCSR| Use Communication thread                                               T
 DBCSR| Communication thread load                                             87
 DBCSR| MPI: My node id                                                        0
 DBCSR| MPI: Number of nodes                                                  24
 DBCSR| OMP: Current number of threads                                         1
 DBCSR| OMP: Max number of threads                                             1
 DBCSR| Split modifier for TAS multiplication algorithm                  1.0E+00


  **** **** ******  **  PROGRAM STARTED AT               2024-11-21 15:03:09.564
 ***** ** ***  *** **   PROGRAM STARTED ON                     cs071.hpc.nyu.edu
 **    ****   ******    PROGRAM STARTED BY                                fh2268
 ***** **    ** ** **   PROGRAM PROCESS ID                               3935156
  **** **  *******  **  PROGRAM STARTED IN /scratch/fh2268/comp-lab-class-2024/W
                                           eek12-IntroAIMD/Runs/Proton

 CP2K| version string:                    CP2K version 8.0 (Development Version)
 CP2K| source code revision number:                                  git:8c64c6e
 CP2K| cp2kflags: omp libint fftw3 libxc elpa parallel mpi3 scalapack xsmm max_c
 CP2K|            ontr=4 mkl
 CP2K| is freely available from                            https://www.cp2k.org/
 CP2K| Program compiled at                          Sat Dec 12 18:27:15 EST 2020
 CP2K| Program compiled on                                     cs001.nyu.cluster
 CP2K| Program compiled for                                            nyu-intel
 CP2K| Data directory path                    /home/wang/cp2k-20201212/cp2k/data
 CP2K| Input file name                                                proton.inp
 
 GLOBAL| Force Environment number                                              1
 GLOBAL| Basis set file name                                           HFX_BASIS
 GLOBAL| Potential file name                                      GTH_POTENTIALS
 GLOBAL| MM Potential file name                                     MM_POTENTIAL
 GLOBAL| Coordinate file name                                         proton.xyz
 GLOBAL| Method name                                                        CP2K
 GLOBAL| Project name                                           WATER_SIMULATION
 GLOBAL| Preferred FFT library                                             FFTW3
 GLOBAL| Preferred diagonalization lib.                                     ELPA
 GLOBAL| Run type                                                             MD
 GLOBAL| All-to-all communication in single precision                          F
 GLOBAL| FFTs using library dependent lengths                                  F
 GLOBAL| Global print level                                                  LOW
 GLOBAL| MPI I/O enabled                                                       T
 GLOBAL| Total number of message passing processes                            24
 GLOBAL| Number of threads for this process                                    1
 GLOBAL| This output is from process                                           0
 GLOBAL| CPU model name             Intel(R) Xeon(R) Platinum 8268 CPU @ 2.90GHz
 GLOBAL| CPUID                                                              1003
 GLOBAL| Compiled for CPUID                                                    0

 *** HINT in environment.F:801 :: The compiler target flags (generic) used ***
 *** to build this binary cannot exploit all extensions of this CPU model  ***
 *** (x86_avx512). Consider compiler target flags as part of FCFLAGS and   ***
 *** CFLAGS (ARCH file).                                                   ***


 MEMORY| system memory details [Kb]
 MEMORY|                        rank 0           min           max       average
 MEMORY| MemTotal            197210676     197210676     197210676     197210676
 MEMORY| MemFree             172047404     172046648     172047404     172047288
 MEMORY| Buffers                  5280          5280          5280          5280
 MEMORY| Cached                4574980       4574980       4574992       4574981
 MEMORY| Slab                  1218024       1218024       1218024       1218024
 MEMORY| SReclaimable           601600        601600        601600        601600
 MEMORY| MemLikelyFree       177229264     177228520     177229264     177229150

 
 GENERATE|  Preliminary Number of Bonds generated:                             0
 GENERATE|  Achieved consistency in connectivity generation.

 *******************************************************************************
 *******************************************************************************
 **                                                                           **
 **     #####                         ##              ##                      **
 **    ##   ##            ##          ##              ##                      **
 **   ##     ##                       ##            ######                    **
 **   ##     ##  ##   ##  ##   #####  ##  ##   ####   ##    #####    #####    **
 **   ##     ##  ##   ##  ##  ##      ## ##   ##      ##   ##   ##  ##   ##   **
 **   ##  ## ##  ##   ##  ##  ##      ####     ###    ##   ######   ######    **
 **    ##  ###   ##   ##  ##  ##      ## ##      ##   ##   ##       ##        **
 **     #######   #####   ##   #####  ##  ##  ####    ##    #####   ##        **
 **           ##                                                    ##        **
 **                                                                           **
 **                                                ... make the atoms dance   **
 **                                                                           **
 **            Copyright (C) by CP2K developers group (2000 - 2020)           **
 **                      J. Chem. Phys. 152, 194103 (2020)                    **
 **                                                                           **
 *******************************************************************************


 TOTAL NUMBERS AND MAXIMUM NUMBERS

  Total number of            - Atomic kinds:                                   2
                             - Atoms:                                        193
                             - Shell sets:                                   579
                             - Shells:                                       707
                             - Primitive Cartesian functions:                965
                             - Cartesian basis functions:                   1541
                             - Spherical basis functions:                   1477

  Maximum angular momentum of- Orbital basis functions:                        2
                             - Local part of the GTH pseudopotential:          2
                             - Non-local part of the GTH pseudopotential:      0


 SCF PARAMETERS         Density guess:                                    ATOMIC
                        --------------------------------------------------------
                        max_scf:                                              30
                        max_scf_history:                                       0
                        max_diis:                                              4
                        --------------------------------------------------------
                        eps_scf:                                        1.00E-06
                        eps_scf_history:                                0.00E+00
                        eps_diis:                                       1.00E-01
                        eps_eigval:                                     1.00E-05
                        --------------------------------------------------------
                        level_shift [a.u.]:                                 0.00
                        --------------------------------------------------------
                        Outer loop SCF in use 
                        No variables optimised in outer loop
                        eps_scf                                         1.00E-06
                        max_scf                                               10
                        No outer loop optimization
                        step_size                                       5.00E-01
 
 MD_PAR| Molecular dynamics protocol (MD input parameters)
 MD_PAR| Ensemble type                                                       NVT
 MD_PAR| Number of time steps                                               2000
 MD_PAR| Time step [fs]                                                 0.500000
 MD_PAR| Temperature [K]                                              300.000000
 MD_PAR| Temperature tolerance [K]                                      0.000000
 MD_PAR| Print MD information every                                    1 step(s)
 MD_PAR| File type   Print frequency [steps]                          File names
 MD_PAR| Coordinates          1                       WATER_SIMULATION-pos-1.xyz
 MD_PAR| Velocities           1                       WATER_SIMULATION-vel-1.xyz
 MD_PAR| Energies             1                          WATER_SIMULATION-1.ener
 MD_PAR| Dump                 1                       WATER_SIMULATION-1.restart

 ROT| Rotational analysis information
 ROT| Principal axes and moments of inertia [a.u.]
 ROT|                           1                   2                   3
 ROT| Eigenvalues      2.05589290134E+08   2.18423915129E+08   2.44822110499E+08
 ROT|      x              0.422425861113     -0.517164314801      0.744377231892
 ROT|      y              0.905668040919      0.207889039445     -0.369523405127
 ROT|      z              0.036356450892      0.830254911925      0.556196898322
 ROT| Number of rotovibrational vectors                                        6

 DOF| Calculation of degrees of freedom
 DOF| Number of atoms                                                        193
 DOF| Number of intramolecular constraints                                     0
 DOF| Number of intermolecular constraints                                     0
 DOF| Invariants (translations + rotations)                                    0
 DOF| Degrees of freedom                                                     579

 DOF| Restraints information
 DOF| Number of intramolecular restraints                                      0
 DOF| Number of intermolecular restraints                                      0

 THERMOSTAT| Thermostat information for PARTICLES
 THERMOSTAT| End of thermostat information for PARTICLES

 MD_VEL| Velocities initialization
 MD_VEL| Initial temperature [K]                                      300.000000
 MD_VEL| COM velocity            -0.0000000000    -0.0000000000    -0.0000000000

 Number of electrons:                                                        512
 Number of occupied orbitals:                                                256
 Number of molecular orbitals:                                               256

 Number of orbital functions:                                               1477
 Number of independent orbital functions:                                   1477

 Extrapolation method: initial_guess


 SCF WAVEFUNCTION OPTIMIZATION

  ----------------------------------- OT ---------------------------------------
  Minimizer      : DIIS                : direct inversion
                                         in the iterative subspace
                                         using   7 DIIS vectors
                                         safer DIIS on
  Preconditioner : FULL_SINGLE_INVERSE : inversion of 
                                         H + eS - 2*(Sc)(c^T*H*c+const)(Sc)^T
  Precond_solver : DEFAULT
  stepsize       :    0.08000000                  energy_gap     :    0.08000000
  eps_taylor     :   0.10000E-15                  max_taylor     :             4
  ----------------------------------- OT ---------------------------------------

  Step     Update method      Time    Convergence         Total energy    Change
  ------------------------------------------------------------------------------
     1 OT DIIS     0.80E-01  101.3     0.02967127     -1059.3934853945 -1.06E+03
     2 OT DIIS     0.80E-01   52.7     0.02092210     -1079.3776941299 -2.00E+01
     3 OT DIIS     0.80E-01   47.1     0.01633304     -1089.9127858196 -1.05E+01
     4 OT DIIS     0.80E-01   45.8     0.01006776     -1097.9037282740 -7.99E+00
     5 OT DIIS     0.80E-01   45.1     0.00615395     -1100.6730286084 -2.77E+00
     6 OT DIIS     0.80E-01   42.7     0.00428762     -1101.8442167879 -1.17E+00
     7 OT DIIS     0.80E-01   49.1     0.00323912     -1102.3498965905 -5.06E-01
     8 OT DIIS     0.80E-01   53.7     0.00226657     -1102.6642176592 -3.14E-01
     9 OT DIIS     0.80E-01   48.6     0.00148779     -1102.8547994286 -1.91E-01
    10 OT DIIS     0.80E-01   47.2     0.00124655     -1102.9083649697 -5.36E-02
    11 OT DIIS     0.80E-01   55.5     0.00085265     -1102.9748984420 -6.65E-02
    12 OT DIIS     0.80E-01   54.8     0.00065345     -1103.0110798780 -3.62E-02
    13 OT DIIS     0.80E-01   54.7     0.00045475     -1103.0365029685 -2.54E-02
    14 OT DIIS     0.80E-01   52.3     0.00032384     -1103.0534326608 -1.69E-02
    15 OT DIIS     0.80E-01   48.3     0.00023371     -1103.0614043613 -7.97E-03
    16 OT DIIS     0.80E-01   51.6     0.00016712     -1103.0661579807 -4.75E-03
    17 OT DIIS     0.80E-01   52.9     0.00012996     -1103.0684283960 -2.27E-03
    18 OT DIIS     0.80E-01   51.3     0.00010652     -1103.0697898189 -1.36E-03
    19 OT DIIS     0.80E-01   49.7     0.00008889     -1103.0707829514 -9.93E-04
    20 OT DIIS     0.80E-01   54.7     0.00007615     -1103.0714702651 -6.87E-04
    21 OT DIIS     0.80E-01   52.7     0.00006618     -1103.0720556452 -5.85E-04
    22 OT DIIS     0.80E-01   53.9     0.00005841     -1103.0725214453 -4.66E-04
    23 OT DIIS     0.80E-01   54.8     0.00005244     -1103.0728911116 -3.70E-04
    24 OT DIIS     0.80E-01   56.6     0.00004736     -1103.0732172431 -3.26E-04
    25 OT DIIS     0.80E-01   55.5     0.00004304     -1103.0734984137 -2.81E-04
    26 OT DIIS     0.80E-01   55.0     0.00003892     -1103.0737411335 -2.43E-04
    27 OT DIIS     0.80E-01   57.4     0.00003522     -1103.0739634130 -2.22E-04
    28 OT DIIS     0.80E-01   57.0     0.00003175     -1103.0741494043 -1.86E-04
    29 OT DIIS     0.80E-01   54.3     0.00002827     -1103.0743114163 -1.62E-04
    30 OT DIIS     0.80E-01   54.7     0.00002526     -1103.0744421872 -1.31E-04

  Leaving inner SCF loop after reaching    30 steps.


  Electronic density on regular grids:       -511.9999999887        0.0000000113
  Core density on regular grids:              512.9999999831       -0.0000000169
  Total charge density on r-space grids:        0.9999999944
  Total charge density g-space grids:           0.9999999944

  Overlap energy of the core charge distribution:               0.00000237830931
  Self energy of the core charge distribution:              -2839.62839375007934
  Core Hamiltonian energy:                                    829.99115137891658
  Hartree energy:                                            1178.75700076153862
  Exchange-correlation energy:                               -271.94612188959701
  Dispersion energy:                                           -0.24808106630865

  Total energy:                                             -1103.07444218722071

  outer SCF iter =    1 RMS gradient =   0.25E-04 energy =      -1103.0744421872

  ----------------------------------- OT ---------------------------------------
  Minimizer      : DIIS                : direct inversion
                                         in the iterative subspace
                                         using   7 DIIS vectors
                                         safer DIIS on
  Preconditioner : FULL_SINGLE_INVERSE : inversion of 
                                         H + eS - 2*(Sc)(c^T*H*c+const)(Sc)^T
  Precond_solver : DEFAULT
  stepsize       :    0.08000000                  energy_gap     :    0.08000000
  eps_taylor     :   0.10000E-15                  max_taylor     :             4
  ----------------------------------- OT ---------------------------------------

  Step     Update method      Time    Convergence         Total energy    Change
  ------------------------------------------------------------------------------
     1 OT DIIS     0.80E-01  158.6     0.00010828     -1103.0745402004 -9.80E-05
     2 OT DIIS     0.80E-01   30.7     0.00006699     -1103.0748214392 -2.81E-04
     3 OT DIIS     0.80E-01   31.0     0.00003262     -1103.0749907689 -1.69E-04
     4 OT DIIS     0.80E-01   31.7     0.00002259     -1103.0750118945 -2.11E-05
     5 OT DIIS     0.80E-01   32.8     0.00001287     -1103.0750177499 -5.86E-06
     6 OT DIIS     0.80E-01   33.1     0.00000444     -1103.0750204083 -2.66E-06
     7 OT DIIS     0.80E-01   30.2     0.00000216     -1103.0750210417 -6.33E-07
     8 OT DIIS     0.80E-01   27.6     0.00000118     -1103.0750211675 -1.26E-07
     9 OT DIIS     0.80E-01   31.1     0.00000063     -1103.0750212062 -3.87E-08

  *** SCF run converged in     9 steps ***


  Electronic density on regular grids:       -511.9999999887        0.0000000113
  Core density on regular grids:              512.9999999831       -0.0000000169
  Total charge density on r-space grids:        0.9999999944
  Total charge density g-space grids:           0.9999999944

  Overlap energy of the core charge distribution:               0.00000237830931
  Self energy of the core charge distribution:              -2839.62839375007934
  Core Hamiltonian energy:                                    829.98878550905897
  Hartree energy:                                            1178.75840752373574
  Exchange-correlation energy:                               -271.94574180090933
  Dispersion energy:                                           -0.24808106630865

  Total energy:                                             -1103.07502120619347

  outer SCF iter =    2 RMS gradient =   0.63E-06 energy =      -1103.0750212062
  outer SCF loop converged in   2 iterations or   39 steps

  
  Eigenvalues of the occupied subspace spin            1
 ---------------------------------------------
      -1.07625151     -0.87303928     -0.83891082     -0.82654410
      -0.82585206     -0.82400449     -0.82146722     -0.81881618
      -0.81636718     -0.81023455     -0.80907504     -0.80784401
      -0.80704764     -0.80483182     -0.80276209     -0.80118337
      -0.79848183     -0.79763025     -0.79632812     -0.79391758
      -0.79320771     -0.78924354     -0.78887626     -0.78743835
      -0.78692405     -0.78453462     -0.78402388     -0.78331261
      -0.78214748     -0.78152198     -0.77920668     -0.77873598
      -0.77747043     -0.77656633     -0.77574563     -0.77480729
      -0.77296385     -0.77160892     -0.77130272     -0.76912225
      -0.76864242     -0.76616083     -0.76558810     -0.76528494
      -0.76471092     -0.76409998     -0.76304719     -0.76231347
      -0.76179132     -0.76107077     -0.76019293     -0.75774125
      -0.75677973     -0.75654380     -0.75372936     -0.74967785
      -0.74158812     -0.73995605     -0.73909599     -0.73892617
      -0.73738323     -0.73508303     -0.72540057     -0.72087547
      -0.57149857     -0.51481263     -0.44388786     -0.41649675
      -0.39258666     -0.39238445     -0.38967433     -0.38374662
      -0.37666727     -0.37484815     -0.37405291     -0.37164749
      -0.36912343     -0.36535272     -0.36288009     -0.36193768
      -0.36098054     -0.35778743     -0.35615384     -0.35542494
      -0.35332402     -0.35230833     -0.35061597     -0.35027607
      -0.34860956     -0.34746764     -0.34557238     -0.34507428
      -0.34382901     -0.34284592     -0.34160519     -0.34121474
      -0.33794426     -0.33681615     -0.33500760     -0.33421955
      -0.33367972     -0.33285759     -0.33185133     -0.33122518
      -0.32874687     -0.32834200     -0.32713976     -0.32578016
      -0.32469958     -0.32444541     -0.32393909     -0.32299209
      -0.32192155     -0.32162140     -0.31871461     -0.31820970
      -0.31737132     -0.31675746     -0.31391793     -0.31141128
      -0.30971910     -0.30822834     -0.30652713     -0.30564010
      -0.30466762     -0.30030908     -0.29922994     -0.29844605
      -0.29298297     -0.28843103     -0.28676294     -0.27638401
      -0.26935901     -0.25946783     -0.25629658     -0.25430584
      -0.25246403     -0.25002601     -0.24524763     -0.24307055
      -0.24158096     -0.24022648     -0.23756054     -0.23605093
      -0.23562528     -0.23225074     -0.23022743     -0.22727876
      -0.22564095     -0.22405692     -0.22244769     -0.22147074
      -0.21976416     -0.21862346     -0.21669895     -0.21607727
      -0.21340099     -0.21129948     -0.21014486     -0.20817715
      -0.20774645     -0.20645114     -0.20606826     -0.20441460
      -0.20149577     -0.19953902     -0.19886004     -0.19715385
      -0.19642201     -0.19446468     -0.19359365     -0.19179551
      -0.18911702     -0.18870699     -0.18765968     -0.18566161
      -0.18437964     -0.18323435     -0.18244274     -0.18000673
      -0.17958375     -0.17773459     -0.17676091     -0.17651121
      -0.17459259     -0.17322865     -0.17195696     -0.17081935
      -0.16965724     -0.16895090     -0.16784710     -0.16495695
      -0.16234931     -0.16016032     -0.15936819     -0.15859463
      -0.15673078     -0.15601879     -0.15409839     -0.15255701
      -0.15073488     -0.14822013     -0.14662685     -0.14514858
      -0.14353144     -0.14182867     -0.14052804     -0.13991494
      -0.13926644     -0.13676846     -0.13592626     -0.13494939
      -0.13414470     -0.13312373     -0.13224944     -0.13105416
      -0.12974272     -0.12856590     -0.12698648     -0.12646087
      -0.12610297     -0.12362105     -0.12291789     -0.12265377
      -0.12230668     -0.12051134     -0.11928791     -0.11843203
      -0.11802511     -0.11754005     -0.11667992     -0.11591251
      -0.11387770     -0.11300302     -0.11246282     -0.11224111
      -0.11125397     -0.11008913     -0.10928733     -0.10872848
      -0.10807339     -0.10702576     -0.10602305     -0.10540061
      -0.10468654     -0.10360851     -0.10158407     -0.09997285
      -0.09971727     -0.09852880     -0.09564377     -0.09521736
      -0.09363864     -0.08748482     -0.08610053     -0.08463520
 Fermi Energy [eV] :   -2.303041
  
  Lowest Eigenvalues of the unoccupied subspace spin            1
 -----------------------------------------------------
  Reached convergence in           95  iterations 
       0.01463956      0.08329045      0.09475505      0.11350846
  
 HOMO - LUMO gap [eV] :    2.701403

 ENERGY| Total FORCE_EVAL ( QS ) energy [a.u.]:            -1103.075021217397534

 MD_INI| MD initialization
 MD_INI| Potential energy [hartree]                          -0.110307502122E+04
 MD_INI| Kinetic energy [hartree]                             0.275037912564E+00
 MD_INI| Temperature [K]                                              300.000000
 MD_INI| Cell volume [bohr^3]                                 1.292889458088E+04
 MD_INI| Cell volume [ang^3]                                  1.915864488000E+03
 MD_INI| Cell lengths [bohr]      2.34703986E+01  2.34703986E+01  2.34703986E+01
 MD_INI| Cell lengths [ang]       1.24200000E+01  1.24200000E+01  1.24200000E+01
 MD_INI| Cell angles [deg]        9.00000000E+01  9.00000000E+01  9.00000000E+01

 Number of electrons:                                                        512
 Number of occupied orbitals:                                                256
 Number of molecular orbitals:                                               256

 Number of orbital functions:                                               1477
 Number of independent orbital functions:                                   1477

 Extrapolation method: ASPC


 SCF WAVEFUNCTION OPTIMIZATION

  ----------------------------------- OT ---------------------------------------
  Minimizer      : DIIS                : direct inversion
                                         in the iterative subspace
                                         using   7 DIIS vectors
                                         safer DIIS on
  Preconditioner : FULL_SINGLE_INVERSE : inversion of 
                                         H + eS - 2*(Sc)(c^T*H*c+const)(Sc)^T
  Precond_solver : DEFAULT
  stepsize       :    0.08000000                  energy_gap     :    0.08000000
  eps_taylor     :   0.10000E-15                  max_taylor     :             4
  ----------------------------------- OT ---------------------------------------

  Step     Update method      Time    Convergence         Total energy    Change
  ------------------------------------------------------------------------------
     1 OT DIIS     0.80E-01   65.2     0.00034208     -1103.0761065644 -1.10E+03
     2 OT DIIS     0.80E-01   30.7     0.00019353     -1103.0787696100 -2.66E-03
     3 OT DIIS     0.80E-01   30.7     0.00010369     -1103.0799489238 -1.18E-03
     4 OT DIIS     0.80E-01   30.2     0.00008345     -1103.0801561525 -2.07E-04
     5 OT DIIS     0.80E-01   29.6     0.00003105     -1103.0802171283 -6.10E-05
     6 OT DIIS     0.80E-01   31.2     0.00001150     -1103.0802382001 -2.11E-05
     7 OT DIIS     0.80E-01   30.4     0.00000464     -1103.0802409827 -2.78E-06
     8 OT DIIS     0.80E-01   30.7     0.00000190     -1103.0802415113 -5.29E-07
     9 OT DIIS     0.80E-01   31.3     0.00000094     -1103.0802416063 -9.51E-08

  *** SCF run converged in     9 steps ***


  Electronic density on regular grids:       -511.9999999886        0.0000000114
  Core density on regular grids:              512.9999999831       -0.0000000169
  Total charge density on r-space grids:        0.9999999944
  Total charge density g-space grids:           0.9999999944

  Overlap energy of the core charge distribution:               0.00000229464918
  Self energy of the core charge distribution:              -2839.62839375007934
  Core Hamiltonian energy:                                    829.76245465275906
  Hartree energy:                                            1178.91522013692747
  Exchange-correlation energy:                               -271.88146332634301
  Dispersion energy:                                           -0.24806161425286

  Total energy:                                             -1103.08024160633954

  outer SCF iter =    1 RMS gradient =   0.94E-06 energy =      -1103.0802416063
  outer SCF loop converged in   1 iterations or    9 steps


 ENERGY| Total FORCE_EVAL ( QS ) energy [a.u.]:            -1103.080241628481872

 MD| ***************************************************************************
 MD| Step number                                                               1
 MD| Time [fs]                                                          0.500000
 MD| Conserved quantity [hartree]                            -0.110280006834E+04
 MD| ---------------------------------------------------------------------------
 MD|                                          Instantaneous             Averages
 MD| CPU time per MD step [s]                   3853.053419          3853.053419
 MD| Energy drift per atom [K]          -0.139131120669E+00   0.000000000000E+00
 MD| Potential energy [hartree]         -0.110308024163E+04  -0.110308024163E+04
 MD| Kinetic energy [hartree]            0.279053523179E+00   0.279053523179E+00
 MD| Temperature [K]                             304.380062           304.380062
 MD| ***************************************************************************

 Number of electrons:                                                        512
 Number of occupied orbitals:                                                256
 Number of molecular orbitals:                                               256

 Number of orbital functions:                                               1477
 Number of independent orbital functions:                                   1477

 Extrapolation method: ASPC


 SCF WAVEFUNCTION OPTIMIZATION

  ----------------------------------- OT ---------------------------------------
  Minimizer      : DIIS                : direct inversion
                                         in the iterative subspace
                                         using   7 DIIS vectors
                                         safer DIIS on
  Preconditioner : FULL_SINGLE_INVERSE : inversion of 
                                         H + eS - 2*(Sc)(c^T*H*c+const)(Sc)^T
  Precond_solver : DEFAULT
  stepsize       :    0.08000000                  energy_gap     :    0.08000000
  eps_taylor     :   0.10000E-15                  max_taylor     :             4
  ----------------------------------- OT ---------------------------------------

  Step     Update method      Time    Convergence         Total energy    Change
  ------------------------------------------------------------------------------
     1 OT DIIS     0.80E-01   85.5     0.00018667     -1103.0901092526 -1.10E+03
     2 OT DIIS     0.80E-01   30.8     0.00010363     -1103.0908850665 -7.76E-04
     3 OT DIIS     0.80E-01   31.1     0.00008627     -1103.0911651926 -2.80E-04
     4 OT DIIS     0.80E-01   31.2     0.00004533     -1103.0912423185 -7.71E-05
     5 OT DIIS     0.80E-01   31.0     0.00001477     -1103.0912682963 -2.60E-05
     6 OT DIIS     0.80E-01   30.5     0.00000716     -1103.0912744176 -6.12E-06
     7 OT DIIS     0.80E-01   30.5     0.00000266     -1103.0912754286 -1.01E-06
     8 OT DIIS     0.80E-01   30.0     0.00000127     -1103.0912755925 -1.64E-07
     9 OT DIIS     0.80E-01   31.2     0.00000070     -1103.0912756224 -2.99E-08

  *** SCF run converged in     9 steps ***


  Electronic density on regular grids:       -511.9999999886        0.0000000114
  Core density on regular grids:              512.9999999831       -0.0000000169
  Total charge density on r-space grids:        0.9999999945
  Total charge density g-space grids:           0.9999999945

  Overlap energy of the core charge distribution:               0.00000207743047
  Self energy of the core charge distribution:              -2839.62839375007934
  Core Hamiltonian energy:                                    829.26951511223024
  Hartree energy:                                            1179.25595410201936
  Exchange-correlation energy:                               -271.74033388549327
  Dispersion energy:                                           -0.24801927855395

  Total energy:                                             -1103.09127562244657

  outer SCF iter =    1 RMS gradient =   0.70E-06 energy =      -1103.0912756224
  outer SCF loop converged in   1 iterations or    9 steps


 ENERGY| Total FORCE_EVAL ( QS ) energy [a.u.]:            -1103.091275634079238

 MD| ***************************************************************************
 MD| Step number                                                               2
 MD| Time [fs]                                                          1.000000
 MD| Conserved quantity [hartree]                            -0.110280031245E+04
 MD| ---------------------------------------------------------------------------
 MD|                                          Instantaneous             Averages
 MD| CPU time per MD step [s]                    380.162281          2116.607850
 MD| Energy drift per atom [K]          -0.538519749633E+00  -0.269259874816E+00
 MD| Potential energy [hartree]         -0.110309127563E+04  -0.110308575863E+04
 MD| Kinetic energy [hartree]            0.272812454156E+00   0.275932988668E+00
 MD| Temperature [K]                             297.572562           300.976312
 MD| ***************************************************************************

 Number of electrons:                                                        512
 Number of occupied orbitals:                                                256
 Number of molecular orbitals:                                               256

 Number of orbital functions:                                               1477
 Number of independent orbital functions:                                   1477

 Extrapolation method: ASPC


 SCF WAVEFUNCTION OPTIMIZATION

  ----------------------------------- OT ---------------------------------------
  Minimizer      : DIIS                : direct inversion
                                         in the iterative subspace
                                         using   7 DIIS vectors
                                         safer DIIS on
  Preconditioner : FULL_SINGLE_INVERSE : inversion of 
                                         H + eS - 2*(Sc)(c^T*H*c+const)(Sc)^T
  Precond_solver : DEFAULT
  stepsize       :    0.08000000                  energy_gap     :    0.08000000
  eps_taylor     :   0.10000E-15                  max_taylor     :             4
  ----------------------------------- OT ---------------------------------------

  Step     Update method      Time    Convergence         Total energy    Change
  ------------------------------------------------------------------------------
     1 OT DIIS     0.80E-01   66.2     0.00019067     -1103.1062285866 -1.10E+03
     2 OT DIIS     0.80E-01   30.6     0.00010604     -1103.1070487003 -8.20E-04
     3 OT DIIS     0.80E-01   29.9     0.00005929     -1103.1073925916 -3.44E-04
     4 OT DIIS     0.80E-01   30.4     0.00004556     -1103.1074549609 -6.24E-05
     5 OT DIIS     0.80E-01   32.3     0.00001720     -1103.1074748822 -1.99E-05
     6 OT DIIS     0.80E-01   31.9     0.00000832     -1103.1074811963 -6.31E-06
     7 OT DIIS     0.80E-01   31.8     0.00000270     -1103.1074823516 -1.16E-06
     8 OT DIIS     0.80E-01   31.5     0.00000112     -1103.1074825381 -1.86E-07
     9 OT DIIS     0.80E-01   31.0     0.00000063     -1103.1074825677 -2.97E-08

  *** SCF run converged in     9 steps ***


  Electronic density on regular grids:       -511.9999999884        0.0000000116
  Core density on regular grids:              512.9999999831       -0.0000000169
  Total charge density on r-space grids:        0.9999999947
  Total charge density g-space grids:           0.9999999947

  Overlap energy of the core charge distribution:               0.00000176713142
  Self energy of the core charge distribution:              -2839.62839375007934
  Core Hamiltonian energy:                                    828.58887725468162
  Hartree energy:                                            1179.72470333950787
  Exchange-correlation energy:                               -271.54473495359434
  Dispersion energy:                                           -0.24793622537116

  Total energy:                                             -1103.10748256772399

  outer SCF iter =    1 RMS gradient =   0.63E-06 energy =      -1103.1074825677
  outer SCF loop converged in   1 iterations or    9 steps


 ENERGY| Total FORCE_EVAL ( QS ) energy [a.u.]:            -1103.107482576825532

 MD| ***************************************************************************
 MD| Step number                                                               3
 MD| Time [fs]                                                          1.500000
 MD| Conserved quantity [hartree]                            -0.110280067535E+04
 MD| ---------------------------------------------------------------------------
 MD|                                          Instantaneous             Averages
 MD| CPU time per MD step [s]                    369.485272          1534.233657
 MD| Energy drift per atom [K]          -0.113227709040E+01  -0.556932280011E+00
 MD| Potential energy [hartree]         -0.110310748258E+04  -0.110309299995E+04
 MD| Kinetic energy [hartree]            0.285217297740E+00   0.279027758359E+00
 MD| Temperature [K]                             311.103253           304.351959
 MD| ***************************************************************************

 Number of electrons:                                                        512
 Number of occupied orbitals:                                                256
 Number of molecular orbitals:                                               256

 Number of orbital functions:                                               1477
 Number of independent orbital functions:                                   1477

 Extrapolation method: ASPC


 SCF WAVEFUNCTION OPTIMIZATION

  ----------------------------------- OT ---------------------------------------
  Minimizer      : DIIS                : direct inversion
                                         in the iterative subspace
                                         using   7 DIIS vectors
                                         safer DIIS on
  Preconditioner : FULL_SINGLE_INVERSE : inversion of 
                                         H + eS - 2*(Sc)(c^T*H*c+const)(Sc)^T
  Precond_solver : DEFAULT
  stepsize       :    0.08000000                  energy_gap     :    0.08000000
  eps_taylor     :   0.10000E-15                  max_taylor     :             4
  ----------------------------------- OT ---------------------------------------

  Step     Update method      Time    Convergence         Total energy    Change
  ------------------------------------------------------------------------------
     1 OT DIIS     0.80E-01   66.5     0.00020771     -1103.1187437993 -1.10E+03
     2 OT DIIS     0.80E-01   30.7     0.00011717     -1103.1197130290 -9.69E-04
     3 OT DIIS     0.80E-01   30.7     0.00007493     -1103.1201113659 -3.98E-04
     4 OT DIIS     0.80E-01   30.3     0.00005364     -1103.1202016396 -9.03E-05
     5 OT DIIS     0.80E-01   29.9     0.00001770     -1103.1202305988 -2.90E-05
     6 OT DIIS     0.80E-01   30.8     0.00000820     -1103.1202380506 -7.45E-06
     7 OT DIIS     0.80E-01   30.1     0.00000283     -1103.1202394192 -1.37E-06
     8 OT DIIS     0.80E-01   29.9     0.00000129     -1103.1202396260 -2.07E-07
     9 OT DIIS     0.80E-01   30.6     0.00000076     -1103.1202396595 -3.34E-08

  *** SCF run converged in     9 steps ***


  Electronic density on regular grids:       -511.9999999883        0.0000000117
  Core density on regular grids:              512.9999999831       -0.0000000169
  Total charge density on r-space grids:        0.9999999948
  Total charge density g-space grids:           0.9999999948

  Overlap energy of the core charge distribution:               0.00000149113515
  Self energy of the core charge distribution:              -2839.62839375007934
  Core Hamiltonian energy:                                    827.87029650312024
  Hartree energy:                                            1180.22315838685017
  Exchange-correlation energy:                               -271.33745234787466
  Dispersion energy:                                           -0.24784994261138

  Total energy:                                             -1103.12023965945968

  outer SCF iter =    1 RMS gradient =   0.76E-06 energy =      -1103.1202396595
  outer SCF loop converged in   1 iterations or    9 steps


 ENERGY| Total FORCE_EVAL ( QS ) energy [a.u.]:            -1103.120239672017760

 MD| ***************************************************************************
 MD| Step number                                                               4
 MD| Time [fs]                                                          2.000000
 MD| Conserved quantity [hartree]                            -0.110280088382E+04
 MD| ---------------------------------------------------------------------------
 MD|                                          Instantaneous             Averages
 MD| CPU time per MD step [s]                    367.202303          1242.475819
 MD| Energy drift per atom [K]          -0.147337228171E+01  -0.786042280434E+00
 MD| Potential energy [hartree]         -0.110312023967E+04  -0.110309980988E+04
 MD| Kinetic energy [hartree]            0.286598969384E+00   0.280920561115E+00
 MD| Temperature [K]                             312.610323           306.416550
 MD| ***************************************************************************

 Number of electrons:                                                        512
 Number of occupied orbitals:                                                256
 Number of molecular orbitals:                                               256

 Number of orbital functions:                                               1477
 Number of independent orbital functions:                                   1477

 Extrapolation method: ASPC


 SCF WAVEFUNCTION OPTIMIZATION

  ----------------------------------- OT ---------------------------------------
  Minimizer      : DIIS                : direct inversion
                                         in the iterative subspace
                                         using   7 DIIS vectors
                                         safer DIIS on
  Preconditioner : FULL_SINGLE_INVERSE : inversion of 
                                         H + eS - 2*(Sc)(c^T*H*c+const)(Sc)^T
  Precond_solver : DEFAULT
  stepsize       :    0.08000000                  energy_gap     :    0.08000000
  eps_taylor     :   0.10000E-15                  max_taylor     :             4
  ----------------------------------- OT ---------------------------------------

  Step     Update method      Time    Convergence         Total energy    Change
  ------------------------------------------------------------------------------
     1 OT DIIS     0.80E-01   67.7     0.00025916     -1103.1290823726 -1.10E+03
     2 OT DIIS     0.80E-01   30.7     0.00014324     -1103.1305664310 -1.48E-03
     3 OT DIIS     0.80E-01   31.1     0.00009277     -1103.1311326709 -5.66E-04
     4 OT DIIS     0.80E-01   30.8     0.00006234     -1103.1312784861 -1.46E-04
     5 OT DIIS     0.80E-01   30.1     0.00002225     -1103.1313219680 -4.35E-05
     6 OT DIIS     0.80E-01   30.1     0.00000977     -1103.1313338371 -1.19E-05
     7 OT DIIS     0.80E-01   30.0     0.00000356     -1103.1313359385 -2.10E-06
     8 OT DIIS     0.80E-01   30.8     0.00000152     -1103.1313362664 -3.28E-07
     9 OT DIIS     0.80E-01   30.3     0.00000083     -1103.1313363205 -5.41E-08

  *** SCF run converged in     9 steps ***


  Electronic density on regular grids:       -511.9999999881        0.0000000119
  Core density on regular grids:              512.9999999831       -0.0000000169
  Total charge density on r-space grids:        0.9999999951
  Total charge density g-space grids:           0.9999999951

  Overlap energy of the core charge distribution:               0.00000126248311
  Self energy of the core charge distribution:              -2839.62839375007934
  Core Hamiltonian energy:                                    827.16256864382876
  Hartree energy:                                            1180.71436340500441
  Exchange-correlation energy:                               -271.13211282867161
  Dispersion energy:                                           -0.24776305306434

  Total energy:                                             -1103.13133632049880

  outer SCF iter =    1 RMS gradient =   0.83E-06 energy =      -1103.1313363205
  outer SCF loop converged in   1 iterations or    9 steps


 ENERGY| Total FORCE_EVAL ( QS ) energy [a.u.]:            -1103.131336336847198

 MD| ***************************************************************************
 MD| Step number                                                               5
 MD| Time [fs]                                                          2.500000
 MD| Conserved quantity [hartree]                            -0.110280102063E+04
 MD| ---------------------------------------------------------------------------
 MD|                                          Instantaneous             Averages
 MD| CPU time per MD step [s]                    373.445254          1068.669706
 MD| Energy drift per atom [K]          -0.169720177498E+01  -0.968274179344E+00
 MD| Potential energy [hartree]         -0.110313133634E+04  -0.110310611517E+04
 MD| Kinetic energy [hartree]            0.304630872809E+00   0.285662623454E+00
 MD| Temperature [K]                             332.278779           311.588996
 MD| ***************************************************************************

 Number of electrons:                                                        512
 Number of occupied orbitals:                                                256
 Number of molecular orbitals:                                               256

 Number of orbital functions:                                               1477
 Number of independent orbital functions:                                   1477

 Extrapolation method: ASPC


 SCF WAVEFUNCTION OPTIMIZATION

  ----------------------------------- OT ---------------------------------------
  Minimizer      : DIIS                : direct inversion
                                         in the iterative subspace
                                         using   7 DIIS vectors
                                         safer DIIS on
  Preconditioner : FULL_SINGLE_INVERSE : inversion of 
                                         H + eS - 2*(Sc)(c^T*H*c+const)(Sc)^T
  Precond_solver : DEFAULT
  stepsize       :    0.08000000                  energy_gap     :    0.08000000
  eps_taylor     :   0.10000E-15                  max_taylor     :             4
  ----------------------------------- OT ---------------------------------------

  Step     Update method      Time    Convergence         Total energy    Change
  ------------------------------------------------------------------------------
     1 OT DIIS     0.80E-01   64.7     0.00021561     -1103.1357062025 -1.10E+03
     2 OT DIIS     0.80E-01   30.6     0.00012073     -1103.1367518107 -1.05E-03
     3 OT DIIS     0.80E-01   29.9     0.00007043     -1103.1371869613 -4.35E-04
     4 OT DIIS     0.80E-01   30.7     0.00004737     -1103.1372803022 -9.33E-05
     5 OT DIIS     0.80E-01   30.2     0.00001847     -1103.1373055621 -2.53E-05
     6 OT DIIS     0.80E-01   30.8     0.00000729     -1103.1373136308 -8.07E-06
     7 OT DIIS     0.80E-01   29.3     0.00000285     -1103.1373147736 -1.14E-06
     8 OT DIIS     0.80E-01   30.1     0.00000116     -1103.1373149841 -2.11E-07
     9 OT DIIS     0.80E-01   29.7     0.00000061     -1103.1373150187 -3.46E-08

  *** SCF run converged in     9 steps ***


  Electronic density on regular grids:       -511.9999999879        0.0000000121
  Core density on regular grids:              512.9999999832       -0.0000000168
  Total charge density on r-space grids:        0.9999999953
  Total charge density g-space grids:           0.9999999953

  Overlap energy of the core charge distribution:               0.00000109985708
  Self energy of the core charge distribution:              -2839.62839375007934
  Core Hamiltonian energy:                                    826.53528299543666
  Hartree energy:                                            1181.15240456036372
  Exchange-correlation energy:                               -270.94891341551045
  Dispersion energy:                                           -0.24769650880618

  Total energy:                                             -1103.13731501873872

  outer SCF iter =    1 RMS gradient =   0.61E-06 energy =      -1103.1373150187
  outer SCF loop converged in   1 iterations or    9 steps


 ENERGY| Total FORCE_EVAL ( QS ) energy [a.u.]:            -1103.137315027177010

 MD| ***************************************************************************
 MD| Step number                                                               6
 MD| Time [fs]                                                          3.000000
 MD| Conserved quantity [hartree]                            -0.110280104195E+04
 MD| ---------------------------------------------------------------------------
 MD|                                          Instantaneous             Averages
 MD| CPU time per MD step [s]                    367.742288           951.848470
 MD| Energy drift per atom [K]          -0.173209354588E+01  -0.109557740710E+01
 MD| Potential energy [hartree]         -0.110313731503E+04  -0.110311131515E+04
 MD| Kinetic energy [hartree]            0.333043894483E+00   0.293559501959E+00
 MD| Temperature [K]                             363.270530           320.202585
 MD| ***************************************************************************

 Number of electrons:                                                        512
 Number of occupied orbitals:                                                256
 Number of molecular orbitals:                                               256

 Number of orbital functions:                                               1477
 Number of independent orbital functions:                                   1477

 Extrapolation method: ASPC


 SCF WAVEFUNCTION OPTIMIZATION

  ----------------------------------- OT ---------------------------------------
  Minimizer      : DIIS                : direct inversion
                                         in the iterative subspace
                                         using   7 DIIS vectors
                                         safer DIIS on
  Preconditioner : FULL_SINGLE_INVERSE : inversion of 
                                         H + eS - 2*(Sc)(c^T*H*c+const)(Sc)^T
  Precond_solver : DEFAULT
  stepsize       :    0.08000000                  energy_gap     :    0.08000000
  eps_taylor     :   0.10000E-15                  max_taylor     :             4
  ----------------------------------- OT ---------------------------------------

  Step     Update method      Time    Convergence         Total energy    Change
  ------------------------------------------------------------------------------
     1 OT DIIS     0.80E-01   65.0     0.00021207     -1103.1363732240 -1.10E+03
     2 OT DIIS     0.80E-01   30.0     0.00011834     -1103.1373878956 -1.01E-03
     3 OT DIIS     0.80E-01   29.5     0.00005411     -1103.1378291062 -4.41E-04
     4 OT DIIS     0.80E-01   30.1     0.00002007     -1103.1379223660 -9.33E-05
     5 OT DIIS     0.80E-01   29.7     0.00000965     -1103.1379351798 -1.28E-05
     6 OT DIIS     0.80E-01   30.9     0.00000449     -1103.1379374773 -2.30E-06
     7 OT DIIS     0.80E-01   31.4     0.00000299     -1103.1379377905 -3.13E-07
     8 OT DIIS     0.80E-01   31.0     0.00000111     -1103.1379379040 -1.13E-07
     9 OT DIIS     0.80E-01   29.6     0.00000051     -1103.1379379296 -2.56E-08

  *** SCF run converged in     9 steps ***


  Electronic density on regular grids:       -511.9999999877        0.0000000123
  Core density on regular grids:              512.9999999831       -0.0000000169
  Total charge density on r-space grids:        0.9999999954
  Total charge density g-space grids:           0.9999999954

  Overlap energy of the core charge distribution:               0.00000101646072
  Self energy of the core charge distribution:              -2839.62839375007934
  Core Hamiltonian energy:                                    826.00311451440416
  Hartree energy:                                            1181.52713522803060
  Exchange-correlation energy:                               -270.79215640330096
  Dispersion energy:                                           -0.24763853506890

  Total energy:                                             -1103.13793792955380

  outer SCF iter =    1 RMS gradient =   0.51E-06 energy =      -1103.1379379296
  outer SCF loop converged in   1 iterations or    9 steps


 ENERGY| Total FORCE_EVAL ( QS ) energy [a.u.]:            -1103.137937935576929

 MD| ***************************************************************************
 MD| Step number                                                               7
 MD| Time [fs]                                                          3.500000
 MD| Conserved quantity [hartree]                            -0.110280090090E+04
 MD| ---------------------------------------------------------------------------
 MD|                                          Instantaneous             Averages
 MD| CPU time per MD step [s]                    369.726289           868.688158
 MD| Energy drift per atom [K]          -0.150130562428E+01  -0.115353858098E+01
 MD| Potential energy [hartree]         -0.110313793794E+04  -0.110311511840E+04
 MD| Kinetic energy [hartree]            0.331062489822E+00   0.298917071653E+00
 MD| Temperature [K]                             361.109296           326.046401
 MD| ***************************************************************************

 Number of electrons:                                                        512
 Number of occupied orbitals:                                                256
 Number of molecular orbitals:                                               256

 Number of orbital functions:                                               1477
 Number of independent orbital functions:                                   1477

 Extrapolation method: ASPC


 SCF WAVEFUNCTION OPTIMIZATION

  ----------------------------------- OT ---------------------------------------
  Minimizer      : DIIS                : direct inversion
                                         in the iterative subspace
                                         using   7 DIIS vectors
                                         safer DIIS on
  Preconditioner : FULL_SINGLE_INVERSE : inversion of 
                                         H + eS - 2*(Sc)(c^T*H*c+const)(Sc)^T
  Precond_solver : DEFAULT
  stepsize       :    0.08000000                  energy_gap     :    0.08000000
  eps_taylor     :   0.10000E-15                  max_taylor     :             4
  ----------------------------------- OT ---------------------------------------

  Step     Update method      Time    Convergence         Total energy    Change
  ------------------------------------------------------------------------------
     1 OT DIIS     0.80E-01   66.8     0.00022143     -1103.1329916698 -1.10E+03
     2 OT DIIS     0.80E-01   30.5     0.00012426     -1103.1340944733 -1.10E-03
     3 OT DIIS     0.80E-01   30.4     0.00006706     -1103.1345601284 -4.66E-04
     4 OT DIIS     0.80E-01   30.6     0.00004035     -1103.1346637044 -1.04E-04
     5 OT DIIS     0.80E-01   30.3     0.00001761     -1103.1346842394 -2.05E-05
     6 OT DIIS     0.80E-01   29.8     0.00000600     -1103.1346921881 -7.95E-06
     7 OT DIIS     0.80E-01   30.5     0.00000248     -1103.1346930728 -8.85E-07
     8 OT DIIS     0.80E-01   30.2     0.00000101     -1103.1346932429 -1.70E-07
     9 OT DIIS     0.80E-01   30.6     0.00000050     -1103.1346932709 -2.79E-08

  *** SCF run converged in     9 steps ***


  Electronic density on regular grids:       -511.9999999877        0.0000000123
  Core density on regular grids:              512.9999999832       -0.0000000168
  Total charge density on r-space grids:        0.9999999955
  Total charge density g-space grids:           0.9999999955

  Overlap energy of the core charge distribution:               0.00000098692558
  Self energy of the core charge distribution:              -2839.62839375007934
  Core Hamiltonian energy:                                    825.56577392782856
  Hartree energy:                                            1181.83720686111064
  Exchange-correlation energy:                               -270.66170287476518
  Dispersion energy:                                           -0.24757842188483

  Total energy:                                             -1103.13469327086455

  outer SCF iter =    1 RMS gradient =   0.50E-06 energy =      -1103.1346932709
  outer SCF loop converged in   1 iterations or    9 steps


 ENERGY| Total FORCE_EVAL ( QS ) energy [a.u.]:            -1103.134693277024780

 MD| ***************************************************************************
 MD| Step number                                                               8
 MD| Time [fs]                                                          4.000000
 MD| Conserved quantity [hartree]                            -0.110280068294E+04
 MD| ---------------------------------------------------------------------------
 MD|                                          Instantaneous             Averages
 MD| CPU time per MD step [s]                    371.977285           806.599299
 MD| Energy drift per atom [K]          -0.114470417948E+01  -0.115243428080E+01
 MD| Potential energy [hartree]         -0.110313469328E+04  -0.110311756526E+04
 MD| Kinetic energy [hartree]            0.320479259507E+00   0.301612345135E+00
 MD| Temperature [K]                             349.565545           328.986294
 MD| ***************************************************************************

 Number of electrons:                                                        512
 Number of occupied orbitals:                                                256
 Number of molecular orbitals:                                               256

 Number of orbital functions:                                               1477
 Number of independent orbital functions:                                   1477

 Extrapolation method: ASPC


 SCF WAVEFUNCTION OPTIMIZATION

  ----------------------------------- OT ---------------------------------------
  Minimizer      : DIIS                : direct inversion
                                         in the iterative subspace
                                         using   7 DIIS vectors
                                         safer DIIS on
  Preconditioner : FULL_SINGLE_INVERSE : inversion of 
                                         H + eS - 2*(Sc)(c^T*H*c+const)(Sc)^T
  Precond_solver : DEFAULT
  stepsize       :    0.08000000                  energy_gap     :    0.08000000
  eps_taylor     :   0.10000E-15                  max_taylor     :             4
  ----------------------------------- OT ---------------------------------------

  Step     Update method      Time    Convergence         Total energy    Change
  ------------------------------------------------------------------------------
     1 OT DIIS     0.80E-01   64.1     0.00022279     -1103.1290661239 -1.10E+03
     2 OT DIIS     0.80E-01   28.6     0.00012599     -1103.1301941850 -1.13E-03
     3 OT DIIS     0.80E-01   29.4     0.00006105     -1103.1306977332 -5.04E-04
     4 OT DIIS     0.80E-01   26.3     0.00003185     -1103.1307983318 -1.01E-04
     5 OT DIIS     0.80E-01   24.5     0.00001815     -1103.1308141376 -1.58E-05
     6 OT DIIS     0.80E-01   25.2     0.00000592     -1103.1308213194 -7.18E-06
     7 OT DIIS     0.80E-01   22.2     0.00000243     -1103.1308221283 -8.09E-07
     8 OT DIIS     0.80E-01   21.0     0.00000099     -1103.1308222943 -1.66E-07

  *** SCF run converged in     8 steps ***


  Electronic density on regular grids:       -511.9999999877        0.0000000123
  Core density on regular grids:              512.9999999831       -0.0000000169
  Total charge density on r-space grids:        0.9999999955
  Total charge density g-space grids:           0.9999999955

  Overlap energy of the core charge distribution:               0.00000100646272
  Self energy of the core charge distribution:              -2839.62839375007934
  Core Hamiltonian energy:                                    825.35849524148080
  Hartree energy:                                            1181.98595165159077
  Exchange-correlation energy:                               -270.59931826041804
  Dispersion energy:                                           -0.24755818338160

  Total energy:                                             -1103.13082229434463

  outer SCF iter =    1 RMS gradient =   0.99E-06 energy =      -1103.1308222943
  outer SCF loop converged in   1 iterations or    8 steps


 ENERGY| Total FORCE_EVAL ( QS ) energy [a.u.]:            -1103.130822322024869

 MD| ***************************************************************************
 MD| Step number                                                               9
 MD| Time [fs]                                                          4.500000
 MD| Conserved quantity [hartree]                            -0.110280052473E+04
 MD| ---------------------------------------------------------------------------
 MD|                                          Instantaneous             Averages
 MD| CPU time per MD step [s]                    293.247203           749.560177
 MD| Energy drift per atom [K]          -0.885841265116E+00  -0.112281283461E+01
 MD| Potential energy [hartree]         -0.110313082232E+04  -0.110311903827E+04
 MD| Kinetic energy [hartree]            0.317117152666E+00   0.303335101527E+00
 MD| Temperature [K]                             345.898298           330.865405
 MD| ***************************************************************************

 Number of electrons:                                                        512
 Number of occupied orbitals:                                                256
 Number of molecular orbitals:                                               256

 Number of orbital functions:                                               1477
 Number of independent orbital functions:                                   1477

 Extrapolation method: ASPC


 SCF WAVEFUNCTION OPTIMIZATION

  ----------------------------------- OT ---------------------------------------
  Minimizer      : DIIS                : direct inversion
                                         in the iterative subspace
                                         using   7 DIIS vectors
                                         safer DIIS on
  Preconditioner : FULL_SINGLE_INVERSE : inversion of 
                                         H + eS - 2*(Sc)(c^T*H*c+const)(Sc)^T
  Precond_solver : DEFAULT
  stepsize       :    0.08000000                  energy_gap     :    0.08000000
  eps_taylor     :   0.10000E-15                  max_taylor     :             4
  ----------------------------------- OT ---------------------------------------

  Step     Update method      Time    Convergence         Total energy    Change
  ------------------------------------------------------------------------------
     1 OT DIIS     0.80E-01   46.9     0.00022108     -1103.1272673425 -1.10E+03
     2 OT DIIS     0.80E-01   19.6     0.00012605     -1103.1283871398 -1.12E-03
     3 OT DIIS     0.80E-01   19.6     0.00005637     -1103.1289106156 -5.23E-04
     4 OT DIIS     0.80E-01   19.7     0.00002330     -1103.1290082680 -9.77E-05
     5 OT DIIS     0.80E-01   20.3     0.00001382     -1103.1290231805 -1.49E-05
     6 OT DIIS     0.80E-01   19.2     0.00000641     -1103.1290267953 -3.61E-06
     7 OT DIIS     0.80E-01   19.7     0.00000258     -1103.1290274185 -6.23E-07
     8 OT DIIS     0.80E-01   19.6     0.00000100     -1103.1290275783 -1.60E-07
     9 OT DIIS     0.80E-01   19.7     0.00000048     -1103.1290276063 -2.81E-08

  *** SCF run converged in     9 steps ***


  Electronic density on regular grids:       -511.9999999877        0.0000000123
  Core density on regular grids:              512.9999999832       -0.0000000168
  Total charge density on r-space grids:        0.9999999956
  Total charge density g-space grids:           0.9999999956

  Overlap energy of the core charge distribution:               0.00000102583522
  Self energy of the core charge distribution:              -2839.62839375007934
  Core Hamiltonian energy:                                    825.29721752266096
  Hartree energy:                                            1182.03003894569429
  Exchange-correlation energy:                               -270.58029259603802
  Dispersion energy:                                           -0.24759875441013

  Total energy:                                             -1103.12902760633665

  outer SCF iter =    1 RMS gradient =   0.48E-06 energy =      -1103.1290276063
  outer SCF loop converged in   1 iterations or    9 steps

  
  Eigenvalues of the occupied subspace spin            1
 ---------------------------------------------
      -0.96123679     -0.85458476     -0.85130044     -0.82080015
      -0.81315658     -0.80598593     -0.80577412     -0.80410946
      -0.80290780     -0.80246291     -0.80120943     -0.79991216
      -0.79521407     -0.79278599     -0.78980242     -0.78699993
      -0.78617069     -0.78490169     -0.78448235     -0.78325431
      -0.78147379     -0.78106693     -0.77900750     -0.77756366
      -0.77701141     -0.77615899     -0.77537134     -0.77416945
      -0.77374006     -0.77297130     -0.77208715     -0.77005372
      -0.76849103     -0.76749470     -0.76623304     -0.76492202
      -0.76447899     -0.76299921     -0.76276807     -0.76147843
      -0.76018012     -0.75935125     -0.75883858     -0.75704747
      -0.75693262     -0.75478432     -0.75470410     -0.75365753
      -0.75172121     -0.75062287     -0.75017163     -0.74797067
      -0.74775294     -0.74676419     -0.74499942     -0.74477175
      -0.74422902     -0.74269655     -0.74096032     -0.74052841
      -0.74005176     -0.73574515     -0.72541445     -0.71826339
      -0.48051705     -0.44867107     -0.39264107     -0.38396402
      -0.37802607     -0.37315622     -0.36250918     -0.36231679
      -0.35612632     -0.35322448     -0.35251232     -0.34991628
      -0.34599130     -0.34565411     -0.34517543     -0.34427984
      -0.34410478     -0.34121876     -0.34065363     -0.33970217
      -0.33926159     -0.33888682     -0.33774247     -0.33728897
      -0.33635955     -0.33569835     -0.33483290     -0.33353446
      -0.33129960     -0.33056198     -0.32997782     -0.32791312
      -0.32745574     -0.32651680     -0.32615646     -0.32564074
      -0.32316397     -0.32307499     -0.32287436     -0.32252951
      -0.32189556     -0.32135016     -0.32053472     -0.32009320
      -0.31819258     -0.31776768     -0.31613813     -0.31532201
      -0.31458099     -0.31313253     -0.31222038     -0.31127535
      -0.31023319     -0.30797947     -0.30696217     -0.30658775
      -0.30564066     -0.30438690     -0.30357471     -0.30276502
      -0.30211679     -0.30108299     -0.29674171     -0.29459175
      -0.29251077     -0.29032612     -0.28965246     -0.28117139
      -0.27339863     -0.25977775     -0.25689779     -0.25405918
      -0.25184275     -0.24909829     -0.24851165     -0.24595762
      -0.24273495     -0.23948576     -0.23706037     -0.23586564
      -0.23412144     -0.23263740     -0.23047103     -0.22951136
      -0.22784462     -0.22628093     -0.22596564     -0.22339135
      -0.22167726     -0.22125519     -0.21997983     -0.21839853
      -0.21748473     -0.21682789     -0.21489578     -0.21369798
      -0.21025253     -0.20865648     -0.20851163     -0.20738026
      -0.20568437     -0.20393537     -0.20221462     -0.19909027
      -0.19820346     -0.19690067     -0.19470507     -0.19350792
      -0.19213716     -0.18816661     -0.18781539     -0.18597613
      -0.18561095     -0.18346515     -0.18187054     -0.18007950
      -0.17879004     -0.17724476     -0.17704539     -0.17585927
      -0.17542858     -0.17327741     -0.17172301     -0.17004617
      -0.16840894     -0.16614210     -0.16444247     -0.16289378
      -0.16256942     -0.15884785     -0.15739576     -0.15105624
      -0.15043055     -0.14796451     -0.14748494     -0.14638872
      -0.14418988     -0.14402711     -0.14214739     -0.14080218
      -0.14057276     -0.13970774     -0.13882995     -0.13856625
      -0.13690107     -0.13614392     -0.13512584     -0.13355995
      -0.13224571     -0.13219372     -0.13098617     -0.13011185
      -0.12875346     -0.12827981     -0.12771673     -0.12634625
      -0.12548181     -0.12431519     -0.12302047     -0.12184181
      -0.12069819     -0.12020054     -0.11974649     -0.11859618
      -0.11807476     -0.11761813     -0.11717716     -0.11676648
      -0.11643981     -0.11604198     -0.11463392     -0.11390701
      -0.11331090     -0.11233394     -0.11201296     -0.11132766
      -0.10902229     -0.10812763     -0.10777311     -0.10638153
      -0.10411961     -0.10366399     -0.10333206     -0.10102097
      -0.10011792     -0.09932227     -0.09840113     -0.09730077
      -0.09117423     -0.08928620     -0.08849982     -0.08837986
 Fermi Energy [eV] :   -2.404938
  
  Lowest Eigenvalues of the unoccupied subspace spin            1
 -----------------------------------------------------
  Reached convergence in           75  iterations 
       0.03708849      0.08612848      0.10565837      0.10972360
  
 HOMO - LUMO gap [eV] :    3.414167

 ENERGY| Total FORCE_EVAL ( QS ) energy [a.u.]:            -1103.129027612285427

 MD| ***************************************************************************
 MD| Step number                                                              10
 MD| Time [fs]                                                          5.000000
 MD| Conserved quantity [hartree]                            -0.110280044753E+04
 MD| ---------------------------------------------------------------------------
 MD|                                          Instantaneous             Averages
 MD| CPU time per MD step [s]                   1276.741013           802.278261
 MD| Energy drift per atom [K]          -0.759542284654E+00  -0.108648577961E+01
 MD| Potential energy [hartree]         -0.110312902761E+04  -0.110312003720E+04
 MD| Kinetic energy [hartree]            0.313488815628E+00   0.304350472937E+00
 MD| Temperature [K]                             341.940658           331.972931
 MD| ***************************************************************************

 Number of electrons:                                                        512
 Number of occupied orbitals:                                                256
 Number of molecular orbitals:                                               256

 Number of orbital functions:                                               1477
 Number of independent orbital functions:                                   1477

 Extrapolation method: ASPC


 SCF WAVEFUNCTION OPTIMIZATION

  ----------------------------------- OT ---------------------------------------
  Minimizer      : DIIS                : direct inversion
                                         in the iterative subspace
                                         using   7 DIIS vectors
                                         safer DIIS on
  Preconditioner : FULL_SINGLE_INVERSE : inversion of 
                                         H + eS - 2*(Sc)(c^T*H*c+const)(Sc)^T
  Precond_solver : DEFAULT
  stepsize       :    0.08000000                  energy_gap     :    0.08000000
  eps_taylor     :   0.10000E-15                  max_taylor     :             4
  ----------------------------------- OT ---------------------------------------

  Step     Update method      Time    Convergence         Total energy    Change
  ------------------------------------------------------------------------------
     1 OT DIIS     0.80E-01   49.6     0.00022642     -1103.1313300831 -1.10E+03
     2 OT DIIS     0.80E-01   18.7     0.00012705     -1103.1324929250 -1.16E-03
     3 OT DIIS     0.80E-01   19.7     0.00006077     -1103.1330082883 -5.15E-04
     4 OT DIIS     0.80E-01   19.4     0.00003346     -1103.1331084861 -1.00E-04
     5 OT DIIS     0.80E-01   20.0     0.00001666     -1103.1331265381 -1.81E-05
     6 OT DIIS     0.80E-01   19.2     0.00000460     -1103.1331339991 -7.46E-06
     7 OT DIIS     0.80E-01   19.4     0.00000216     -1103.1331346003 -6.01E-07
     8 OT DIIS     0.80E-01   20.2     0.00000093     -1103.1331347191 -1.19E-07

  *** SCF run converged in     8 steps ***


  Electronic density on regular grids:       -511.9999999877        0.0000000123
  Core density on regular grids:              512.9999999832       -0.0000000168
  Total charge density on r-space grids:        0.9999999955
  Total charge density g-space grids:           0.9999999955

  Overlap energy of the core charge distribution:               0.00000102200822
  Self energy of the core charge distribution:              -2839.62839375007934
  Core Hamiltonian energy:                                    825.36241193254614
  Hartree energy:                                            1181.98094279819634
  Exchange-correlation energy:                               -270.60041124696886
  Dispersion energy:                                           -0.24768547483841

  Total energy:                                             -1103.13313471913580

  outer SCF iter =    1 RMS gradient =   0.93E-06 energy =      -1103.1331347191
  outer SCF loop converged in   1 iterations or    8 steps


 ENERGY| Total FORCE_EVAL ( QS ) energy [a.u.]:            -1103.133134742514812

 MD| ***************************************************************************
 MD| Step number                                                              11
 MD| Time [fs]                                                          5.500000
 MD| Conserved quantity [hartree]                            -0.110280052685E+04
 MD| ---------------------------------------------------------------------------
 MD|                                          Instantaneous             Averages
 MD| CPU time per MD step [s]                    226.748172           749.957344
 MD| Energy drift per atom [K]          -0.889310606009E+00  -0.106856076383E+01
 MD| Potential energy [hartree]         -0.110313313474E+04  -0.110312122789E+04
 MD| Kinetic energy [hartree]            0.331724687939E+00   0.306839037938E+00
 MD| Temperature [K]                             361.831594           334.687355
 MD| ***************************************************************************

 Number of electrons:                                                        512
 Number of occupied orbitals:                                                256
 Number of molecular orbitals:                                               256

 Number of orbital functions:                                               1477
 Number of independent orbital functions:                                   1477

 Extrapolation method: ASPC


 SCF WAVEFUNCTION OPTIMIZATION

  ----------------------------------- OT ---------------------------------------
  Minimizer      : DIIS                : direct inversion
                                         in the iterative subspace
                                         using   7 DIIS vectors
                                         safer DIIS on
  Preconditioner : FULL_SINGLE_INVERSE : inversion of 
                                         H + eS - 2*(Sc)(c^T*H*c+const)(Sc)^T
  Precond_solver : DEFAULT
  stepsize       :    0.08000000                  energy_gap     :    0.08000000
  eps_taylor     :   0.10000E-15                  max_taylor     :             4
  ----------------------------------- OT ---------------------------------------

  Step     Update method      Time    Convergence         Total energy    Change
  ------------------------------------------------------------------------------
     1 OT DIIS     0.80E-01   44.8     0.00023487     -1103.1356236276 -1.10E+03
     2 OT DIIS     0.80E-01   19.6     0.00013091     -1103.1368666783 -1.24E-03
     3 OT DIIS     0.80E-01   20.1     0.00006583     -1103.1373982445 -5.32E-04
     4 OT DIIS     0.80E-01   19.9     0.00003679     -1103.1375078430 -1.10E-04
     5 OT DIIS     0.80E-01   20.0     0.00001634     -1103.1375288424 -2.10E-05
     6 OT DIIS     0.80E-01   19.5     0.00000458     -1103.1375367700 -7.93E-06
     7 OT DIIS     0.80E-01   19.6     0.00000196     -1103.1375374248 -6.55E-07
     8 OT DIIS     0.80E-01   19.4     0.00000081     -1103.1375375394 -1.15E-07

  *** SCF run converged in     8 steps ***


  Electronic density on regular grids:       -511.9999999878        0.0000000122
  Core density on regular grids:              512.9999999832       -0.0000000168
  Total charge density on r-space grids:        0.9999999954
  Total charge density g-space grids:           0.9999999954

  Overlap energy of the core charge distribution:               0.00000101590869
  Self energy of the core charge distribution:              -2839.62839375007934
  Core Hamiltonian energy:                                    825.46794875430248
  Hartree energy:                                            1181.90357874407596
  Exchange-correlation energy:                               -270.63285044740371
  Dispersion energy:                                           -0.24782185619127

  Total energy:                                             -1103.13753753938704

  outer SCF iter =    1 RMS gradient =   0.81E-06 energy =      -1103.1375375394
  outer SCF loop converged in   1 iterations or    8 steps


 ENERGY| Total FORCE_EVAL ( QS ) energy [a.u.]:            -1103.137537558420490

 MD| ***************************************************************************
 MD| Step number                                                              12
 MD| Time [fs]                                                          6.000000
 MD| Conserved quantity [hartree]                            -0.110280063565E+04
 MD| ---------------------------------------------------------------------------
 MD|                                          Instantaneous             Averages
 MD| CPU time per MD step [s]                    222.696178           706.018913
 MD| Energy drift per atom [K]          -0.106732432686E+01  -0.106845772742E+01
 MD| Potential energy [hartree]         -0.110313753756E+04  -0.110312258703E+04
 MD| Kinetic energy [hartree]            0.331824819534E+00   0.308921186404E+00
 MD| Temperature [K]                             361.940814           336.958476
 MD| ***************************************************************************

 Number of electrons:                                                        512
 Number of occupied orbitals:                                                256
 Number of molecular orbitals:                                               256

 Number of orbital functions:                                               1477
 Number of independent orbital functions:                                   1477

 Extrapolation method: ASPC


 SCF WAVEFUNCTION OPTIMIZATION

  ----------------------------------- OT ---------------------------------------
  Minimizer      : DIIS                : direct inversion
                                         in the iterative subspace
[...]
 MD| ***************************************************************************

 Number of electrons:                                                        512
 Number of occupied orbitals:                                                256
 Number of molecular orbitals:                                               256

 Number of orbital functions:                                               1477
 Number of independent orbital functions:                                   1477

 Extrapolation method: ASPC


 SCF WAVEFUNCTION OPTIMIZATION

  ----------------------------------- OT ---------------------------------------
  Minimizer      : DIIS                : direct inversion
                                         in the iterative subspace
                                         using   7 DIIS vectors
                                         safer DIIS on
  Preconditioner : FULL_SINGLE_INVERSE : inversion of 
                                         H + eS - 2*(Sc)(c^T*H*c+const)(Sc)^T
  Precond_solver : DEFAULT
  stepsize       :    0.08000000                  energy_gap     :    0.08000000
  eps_taylor     :   0.10000E-15                  max_taylor     :             4
  ----------------------------------- OT ---------------------------------------

  Step     Update method      Time    Convergence         Total energy    Change
  ------------------------------------------------------------------------------
     1 OT DIIS     0.80E-01   43.8     0.00022481     -1103.1693358072 -1.10E+03
     2 OT DIIS     0.80E-01   19.5     0.00012584     -1103.1704846802 -1.15E-03
     3 OT DIIS     0.80E-01   19.2     0.00005508     -1103.1709970985 -5.12E-04
     4 OT DIIS     0.80E-01   19.8     0.00002144     -1103.1710912917 -9.42E-05
     5 OT DIIS     0.80E-01   19.4     0.00000926     -1103.1711065641 -1.53E-05
     6 OT DIIS     0.80E-01   19.3     0.00000336     -1103.1711088702 -2.31E-06
     7 OT DIIS     0.80E-01   19.8     0.00000139     -1103.1711091954 -3.25E-07
     8 OT DIIS     0.80E-01   19.6     0.00000058     -1103.1711092534 -5.80E-08

  *** SCF run converged in     8 steps ***


  Electronic density on regular grids:       -511.9999999884        0.0000000116
  Core density on regular grids:              512.9999999831       -0.0000000169
  Total charge density on r-space grids:        0.9999999947
  Total charge density g-space grids:           0.9999999947

  Overlap energy of the core charge distribution:               0.00000154891136
  Self energy of the core charge distribution:              -2839.62839375007934
  Core Hamiltonian energy:                                    827.68384088782045
  Hartree energy:                                            1180.30674319679883
  Exchange-correlation energy:                               -271.28523713965171
  Dispersion energy:                                           -0.24806399716396

  Total energy:                                             -1103.17110925336442

  outer SCF iter =    1 RMS gradient =   0.58E-06 energy =      -1103.1711092534
  outer SCF loop converged in   1 iterations or    8 steps


 ENERGY| Total FORCE_EVAL ( QS ) energy [a.u.]:            -1103.171109263658764

 MD| ***************************************************************************
 MD| Step number                                                              47
 MD| Time [fs]                                                         23.500000
 MD| Conserved quantity [hartree]                            -0.110280107928E+04
 MD| ---------------------------------------------------------------------------
 MD|                                          Instantaneous             Averages
 MD| CPU time per MD step [s]                    220.714187           430.708813
 MD| Energy drift per atom [K]          -0.179317118677E+01  -0.117183785677E+01
 MD| Potential energy [hartree]         -0.110317110926E+04  -0.110314057741E+04
 MD| Kinetic energy [hartree]            0.281560399995E+00   0.300689559333E+00
 MD| Temperature [K]                             307.114460           327.979757
 MD| ***************************************************************************

 Number of electrons:                                                        512
 Number of occupied orbitals:                                                256
 Number of molecular orbitals:                                               256

 Number of orbital functions:                                               1477
 Number of independent orbital functions:                                   1477

 Extrapolation method: ASPC


 SCF WAVEFUNCTION OPTIMIZATION

  ----------------------------------- OT ---------------------------------------
  Minimizer      : DIIS                : direct inversion
                                         in the iterative subspace
                                         using   7 DIIS vectors
                                         safer DIIS on
  Preconditioner : FULL_SINGLE_INVERSE : inversion of 
                                         H + eS - 2*(Sc)(c^T*H*c+const)(Sc)^T
  Precond_solver : DEFAULT
  stepsize       :    0.08000000                  energy_gap     :    0.08000000
  eps_taylor     :   0.10000E-15                  max_taylor     :             4
  ----------------------------------- OT ---------------------------------------

  Step     Update method      Time    Convergence         Total energy    Change
  ------------------------------------------------------------------------------
     1 OT DIIS     0.80E-01   41.1     0.00020595     -1103.1736035011 -1.10E+03
     2 OT DIIS     0.80E-01   19.3     0.00011667     -1103.1745713994 -9.68E-04
     3 OT DIIS     0.80E-01   19.6     0.00005165     -1103.1750138761 -4.42E-04
     4 OT DIIS     0.80E-01   19.3     0.00001930     -1103.1750976028 -8.37E-05
     5 OT DIIS     0.80E-01   19.9     0.00000858     -1103.1751098286 -1.22E-05
     6 OT DIIS     0.80E-01   19.8     0.00000318     -1103.1751117430 -1.91E-06
     7 OT DIIS     0.80E-01   19.5     0.00000135     -1103.1751120302 -2.87E-07
     8 OT DIIS     0.80E-01   19.8     0.00000057     -1103.1751120830 -5.28E-08

  *** SCF run converged in     8 steps ***


  Electronic density on regular grids:       -511.9999999884        0.0000000116
  Core density on regular grids:              512.9999999832       -0.0000000168
  Total charge density on r-space grids:        0.9999999948
  Total charge density g-space grids:           0.9999999948

  Overlap energy of the core charge distribution:               0.00000147488610
  Self energy of the core charge distribution:              -2839.62839375007934
  Core Hamiltonian energy:                                    827.50017119398149
  Hartree energy:                                            1180.43344108081942
  Exchange-correlation energy:                               -271.23233839440593
  Dispersion energy:                                           -0.24799368818338

  Total energy:                                             -1103.17511208298151

  outer SCF iter =    1 RMS gradient =   0.57E-06 energy =      -1103.1751120830
  outer SCF loop converged in   1 iterations or    8 steps


 ENERGY| Total FORCE_EVAL ( QS ) energy [a.u.]:            -1103.175112092809741

 MD| ***************************************************************************
 MD| Step number                                                              48
 MD| Time [fs]                                                         24.000000
 MD| Conserved quantity [hartree]                            -0.110280113280E+04
 MD| ---------------------------------------------------------------------------
 MD|                                          Instantaneous             Averages
 MD| CPU time per MD step [s]                    218.017179           426.277738
 MD| Energy drift per atom [K]          -0.188072979163E+01  -0.118660643875E+01
 MD| Potential energy [hartree]         -0.110317511209E+04  -0.110314129688E+04
 MD| Kinetic energy [hartree]            0.295555288534E+00   0.300582595358E+00
 MD| Temperature [K]                             322.379507           327.863085
 MD| ***************************************************************************

 Number of electrons:                                                        512
 Number of occupied orbitals:                                                256
 Number of molecular orbitals:                                               256

 Number of orbital functions:                                               1477
 Number of independent orbital functions:                                   1477

 Extrapolation method: ASPC


 SCF WAVEFUNCTION OPTIMIZATION

  ----------------------------------- OT ---------------------------------------
  Minimizer      : DIIS                : direct inversion
                                         in the iterative subspace
                                         using   7 DIIS vectors
                                         safer DIIS on
  Preconditioner : FULL_SINGLE_INVERSE : inversion of 
                                         H + eS - 2*(Sc)(c^T*H*c+const)(Sc)^T
  Precond_solver : DEFAULT
  stepsize       :    0.08000000                  energy_gap     :    0.08000000
  eps_taylor     :   0.10000E-15                  max_taylor     :             4
  ----------------------------------- OT ---------------------------------------

  Step     Update method      Time    Convergence         Total energy    Change
  ------------------------------------------------------------------------------
     1 OT DIIS     0.80E-01   44.3     0.00020884     -1103.1779271859 -1.10E+03
     2 OT DIIS     0.80E-01   19.6     0.00011771     -1103.1789164303 -9.89E-04
     3 OT DIIS     0.80E-01   19.6     0.00005332     -1103.1793588625 -4.42E-04
     4 OT DIIS     0.80E-01   20.4     0.00001932     -1103.1794510915 -9.22E-05
     5 OT DIIS     0.80E-01   19.5     0.00000842     -1103.1794638217 -1.27E-05
     6 OT DIIS     0.80E-01   19.5     0.00000322     -1103.1794655965 -1.77E-06
     7 OT DIIS     0.80E-01   19.8     0.00000133     -1103.1794658849 -2.88E-07
     8 OT DIIS     0.80E-01   20.4     0.00000057     -1103.1794659356 -5.08E-08

  *** SCF run converged in     8 steps ***


  Electronic density on regular grids:       -511.9999999883        0.0000000117
  Core density on regular grids:              512.9999999832       -0.0000000168
  Total charge density on r-space grids:        0.9999999949
  Total charge density g-space grids:           0.9999999949

  Overlap energy of the core charge distribution:               0.00000141618777
  Self energy of the core charge distribution:              -2839.62839375007934
  Core Hamiltonian energy:                                    827.31360120653130
  Hartree energy:                                            1180.56185987393928
  Exchange-correlation energy:                               -271.17859716533951
  Dispersion energy:                                           -0.24793751687458

  Total energy:                                             -1103.17946593563511

  outer SCF iter =    1 RMS gradient =   0.57E-06 energy =      -1103.1794659356
  outer SCF loop converged in   1 iterations or    8 steps


 ENERGY| Total FORCE_EVAL ( QS ) energy [a.u.]:            -1103.179465945457423

 MD| ***************************************************************************
 MD| Step number                                                              49
 MD| Time [fs]                                                         24.500000
 MD| Conserved quantity [hartree]                            -0.110280116391E+04
 MD| ---------------------------------------------------------------------------
 MD|                                          Instantaneous             Averages
 MD| CPU time per MD step [s]                    222.874192           422.126645
 MD| Energy drift per atom [K]          -0.193162623429E+01  -0.120181092437E+01
 MD| Potential energy [hartree]         -0.110317946595E+04  -0.110314207584E+04
 MD| Kinetic energy [hartree]            0.297564904407E+00   0.300521009828E+00
 MD| Temperature [K]                             324.571513           327.795910
 MD| ***************************************************************************

 Number of electrons:                                                        512
 Number of occupied orbitals:                                                256
 Number of molecular orbitals:                                               256

 Number of orbital functions:                                               1477
 Number of independent orbital functions:                                   1477

 Extrapolation method: ASPC


 SCF WAVEFUNCTION OPTIMIZATION

  ----------------------------------- OT ---------------------------------------
  Minimizer      : DIIS                : direct inversion
                                         in the iterative subspace
                                         using   7 DIIS vectors
                                         safer DIIS on
  Preconditioner : FULL_SINGLE_INVERSE : inversion of 
                                         H + eS - 2*(Sc)(c^T*H*c+const)(Sc)^T
  Precond_solver : DEFAULT
  stepsize       :    0.08000000                  energy_gap     :    0.08000000
  eps_taylor     :   0.10000E-15                  max_taylor     :             4
  ----------------------------------- OT ---------------------------------------

  Step     Update method      Time    Convergence         Total energy    Change
  ------------------------------------------------------------------------------
     1 OT DIIS     0.80E-01   44.7     0.00022527     -1103.1807085190 -1.10E+03
     2 OT DIIS     0.80E-01   19.8     0.00012576     -1103.1818648425 -1.16E-03
     3 OT DIIS     0.80E-01   19.6     0.00005232     -1103.1823833681 -5.19E-04
     4 OT DIIS     0.80E-01   19.6     0.00002057     -1103.1824696552 -8.63E-05
     5 OT DIIS     0.80E-01   19.6     0.00000843     -1103.1824843159 -1.47E-05
     6 OT DIIS     0.80E-01   19.8     0.00000325     -1103.1824861523 -1.84E-06
     7 OT DIIS     0.80E-01   20.1     0.00000133     -1103.1824864472 -2.95E-07
     8 OT DIIS     0.80E-01   19.4     0.00000057     -1103.1824864987 -5.15E-08

  *** SCF run converged in     8 steps ***


  Electronic density on regular grids:       -511.9999999882        0.0000000118
  Core density on regular grids:              512.9999999831       -0.0000000169
  Total charge density on r-space grids:        0.9999999949
  Total charge density g-space grids:           0.9999999949

  Overlap energy of the core charge distribution:               0.00000137609216
  Self energy of the core charge distribution:              -2839.62839375007934
  Core Hamiltonian energy:                                    827.15154544004804
  Hartree energy:                                            1180.67332651407241
  Exchange-correlation energy:                               -271.13109406320490
  Dispersion energy:                                           -0.24787201561527

  Total energy:                                             -1103.18248649868679

  outer SCF iter =    1 RMS gradient =   0.57E-06 energy =      -1103.1824864987
  outer SCF loop converged in   1 iterations or    8 steps

  
  Eigenvalues of the occupied subspace spin            1
 ---------------------------------------------
      -0.88600067     -0.85641325     -0.82283693     -0.81802832
      -0.81562415     -0.81327638     -0.81273343     -0.80892971
      -0.80807177     -0.80671802     -0.80474821     -0.80377244
      -0.80233603     -0.80120434     -0.80064963     -0.79849896
      -0.79803625     -0.79528912     -0.79328441     -0.79102375
      -0.78952591     -0.78900167     -0.78839117     -0.78559298
      -0.78448182     -0.78382612     -0.78325160     -0.78208204
      -0.78177462     -0.77956782     -0.77652866     -0.77488991
      -0.77422489     -0.77307797     -0.77224976     -0.77186980
      -0.76922410     -0.76836461     -0.76813531     -0.76743879
      -0.76620465     -0.76566176     -0.76449784     -0.76307814
      -0.76126391     -0.76081007     -0.75975529     -0.75874142
      -0.75722141     -0.75604092     -0.75443495     -0.75354539
      -0.75331571     -0.75203302     -0.74981283     -0.74681122
      -0.74494484     -0.74223937     -0.74105615     -0.74018055
      -0.73947088     -0.73683237     -0.71809152     -0.71553964
      -0.42903308     -0.39823169     -0.39420404     -0.37990403
      -0.37477810     -0.36811677     -0.36580140     -0.36544013
      -0.36064894     -0.35917831     -0.35877444     -0.35770233
      -0.35734197     -0.35307096     -0.35103864     -0.35055433
      -0.34835128     -0.34790229     -0.34667872     -0.34549338
      -0.34341853     -0.34275444     -0.34201026     -0.34165961
      -0.34098334     -0.33946638     -0.33847050     -0.33766663
      -0.33746344     -0.33713859     -0.33550105     -0.33462394
      -0.33402297     -0.33317185     -0.33199730     -0.33048984
      -0.32947905     -0.32871277     -0.32773907     -0.32653423
      -0.32562104     -0.32385657     -0.32358255     -0.32335276
      -0.32259379     -0.32180029     -0.32107729     -0.32043941
      -0.31871363     -0.31768122     -0.31713447     -0.31655947
      -0.31537250     -0.31381222     -0.31207869     -0.31162117
      -0.31107398     -0.30826269     -0.30803959     -0.30709963
      -0.30478051     -0.30182119     -0.30002591     -0.29821570
      -0.29574678     -0.29369991     -0.26651244     -0.26571468
      -0.26246702     -0.25963400     -0.25431492     -0.25123888
      -0.24745557     -0.24722457     -0.24490992     -0.24449418
      -0.24237998     -0.24086585     -0.23851757     -0.23646442
      -0.23491750     -0.23229844     -0.23103146     -0.22910811
      -0.22788640     -0.22636480     -0.22442704     -0.22286326
      -0.22065568     -0.21967609     -0.21874913     -0.21772226
      -0.21651264     -0.21572423     -0.21472845     -0.21446783
      -0.21166616     -0.20915428     -0.20850714     -0.20764927
      -0.20718437     -0.20689458     -0.20254638     -0.20142695
      -0.20059935     -0.19909327     -0.19791758     -0.19685582
      -0.19493580     -0.19421972     -0.19325667     -0.18996054
      -0.18711786     -0.18394244     -0.18315242     -0.18079728
      -0.17847882     -0.17765000     -0.17595043     -0.17389080
      -0.17185960     -0.16905511     -0.16862153     -0.16739537
      -0.16582440     -0.16381316     -0.16165082     -0.16061116
      -0.15769086     -0.15579335     -0.15499328     -0.15316874
      -0.15241442     -0.15134291     -0.14993567     -0.14929631
      -0.14857505     -0.14801269     -0.14699342     -0.14476349
      -0.14366419     -0.14241540     -0.13930410     -0.13887863
      -0.13847785     -0.13786154     -0.13702914     -0.13640821
      -0.13560656     -0.13522686     -0.13455997     -0.13332414
      -0.13253243     -0.13093920     -0.13029376     -0.12936855
      -0.12813151     -0.12720955     -0.12681767     -0.12566403
      -0.12545812     -0.12424677     -0.12360428     -0.12281660
      -0.12126055     -0.12091953     -0.11984331     -0.11942749
      -0.11868671     -0.11835034     -0.11759142     -0.11566969
      -0.11546389     -0.11461292     -0.11393774     -0.11315830
      -0.11236245     -0.11186570     -0.10987928     -0.10842956
      -0.10801284     -0.10721508     -0.10635165     -0.10432684
      -0.10072633     -0.09942931     -0.09871452     -0.09743052
      -0.09682389     -0.09241811     -0.08703460     -0.07512039
 Fermi Energy [eV] :   -2.044130
  
  Lowest Eigenvalues of the unoccupied subspace spin            1
 -----------------------------------------------------
