#     Step Nr.          Time[fs]        Kin.[a.u.]          Temp[K]            Pot.[a.u.]        Cons Qty[a.u.]        UsedTime[s]
         0            0.000000         0.275037913       300.000000000     -1103.075021217     -1102.799983305         0.000000000
         1            0.500000         0.279053523       304.380062273     -1103.080241628     -1102.800068341      3853.053418979
         2            1.000000         0.272812454       297.572561847     -1103.091275634     -1102.800312446       380.162280757
         3            1.500000         0.285217298       311.103253091     -1103.107482577     -1102.800675347       369.485271975
         4            2.000000         0.286598969       312.610323477     -1103.120239672     -1102.800883823       367.202303234
         5            2.500000         0.304630873       332.278779280     -1103.131336337     -1102.801020627       373.445254423
         6            3.000000         0.333043894       363.270530282     -1103.137315027     -1102.801041952       367.742288329
         7            3.500000         0.331062490       361.109295880     -1103.137937936     -1102.800900896       369.726289071
         8            4.000000         0.320479260       349.565545185     -1103.134693277     -1102.800682943       371.977284893
         9            4.500000         0.317117153       345.898297849     -1103.130822322     -1102.800524727       293.247203059
        10            5.000000         0.313488816       341.940657604     -1103.129027612     -1102.800447534      1276.741013370
        11            5.500000         0.331724688       361.831594248     -1103.133134743     -1102.800526847       226.748171762
        12            6.000000         0.331824820       361.940813658     -1103.137537558     -1102.800635649       222.696177591
        13            6.500000         0.324580924       354.039471301     -1103.141896309     -1102.800703601       222.064345561
        14            7.000000         0.315919174       344.591592514     -1103.143795954     -1102.800728546       220.046281122
        15            7.500000         0.332018868       362.152473825     -1103.142788378     -1102.800697383       222.340171676
        16            8.000000         0.335481479       365.929346331     -1103.143284854     -1102.800722606       241.976182997
        17            8.500000         0.314069796       342.574367064     -1103.141119960     -1102.800714997       222.675198492
        18            9.000000         0.299931184       327.152553204     -1103.138973056     -1102.800707619       221.693234786
        19            9.500000         0.296470938       323.378259207     -1103.134550000     -1102.800611128       221.055192821
        20           10.000000         0.295013312       321.788341308     -1103.132322803     -1102.800540342      1364.160175748
        21           10.500000         0.303012794       330.513846238     -1103.132181918     -1102.800475363       237.405206371
        22           11.000000         0.301647351       329.024476968     -1103.132829717     -1102.800446938       219.969190877
        23           11.500000         0.305659890       333.401188296     -1103.135463464     -1102.800500897       217.408175919
        24           12.000000         0.298987884       326.123640238     -1103.138522584     -1102.800540048       221.666201890
        25           12.500000         0.285399678       311.302185648     -1103.139864176     -1102.800544771       219.968180671
        26           13.000000         0.277601451       302.796202272     -1103.139675076     -1102.800561204       221.392199323
        27           13.500000         0.291590135       318.054480495     -1103.139502045     -1102.800604661       221.863182798
        28           14.000000         0.276096951       301.155155098     -1103.140297299     -1102.800662950       222.905193623
        29           14.500000         0.279550837       304.922511174     -1103.142596855     -1102.800692158       219.484191146
        30           15.000000         0.294563585       321.297796994     -1103.142840774     -1102.800626612      1586.700362220
        31           15.500000         0.304631720       332.279703713     -1103.142211313     -1102.800507400       222.058188051
        32           16.000000         0.303090533       330.598640108     -1103.143167915     -1102.800518474       221.069191273
        33           16.500000         0.285304646       311.198529188     -1103.144429244     -1102.800595057       221.526192125
        34           17.000000         0.297654914       324.669691364     -1103.148216259     -1102.800737113       222.492189448
        35           17.500000         0.293314791       319.935664074     -1103.150026848     -1102.800799194       223.249185290
        36           18.000000         0.293612371       320.260252726     -1103.152237090     -1102.800856688       221.967196520
        37           18.500000         0.309008641       337.053868404     -1103.151433432     -1102.800828198       222.029184293
        38           19.000000         0.281223918       306.747439728     -1103.147065453     -1102.800717924       222.014192801
        39           19.500000         0.285035952       310.905448316     -1103.145049998     -1102.800619031       222.039182547
        40           20.000000         0.281499128       307.047626962     -1103.149358230     -1102.800703784      1700.342391796
        41           20.500000         0.305091835       332.781577511     -1103.156865151     -1102.800869207       222.520189531
        42           21.000000         0.309999425       338.134574338     -1103.163354387     -1102.801046899       222.507187251
        43           21.500000         0.303475561       331.018613122     -1103.166498233     -1102.801113819       220.944188695
        44           22.000000         0.287510621       313.604715412     -1103.167876491     -1102.801103371       219.660183366
        45           22.500000         0.291610453       318.076642455     -1103.167054498     -1102.801035091       220.110184342
        46           23.000000         0.284133912       309.921540882     -1103.167634684     -1102.801029302       221.071191318
        47           23.500000         0.281560400       307.114460006     -1103.171109264     -1102.801079283       220.714187037
        48           24.000000         0.295555289       322.379506642     -1103.175112093     -1102.801132798       218.017178770
        49           24.500000         0.297564904       324.571512668     -1103.179465945     -1102.801163906       222.874191791
