ITEM: TIMESTEP
0
ITEM: NUMBER OF ATOMS
360
ITEM: BOX BOUNDS pp pp pp
0.0000000000000000e+00 6.6943295008216896e+00
0.0000000000000000e+00 6.6943295008216896e+00
0.0000000000000000e+00 6.6943295008216896e+00
ITEM: ATOMS id type xs ys zs
252 1 0.173944 0.0221765 0.0234267
285 1 0.195988 0.15247 0.11208
62 1 0.113561 0.0316246 0.16278
347 2 0.0444747 0.148981 0.0907174
6 1 0.330453 0.226666 0.154437
315 2 0.257053 0.0441495 0.111299
41 1 0.358935 0.104661 0.0739078
348 2 0.487379 0.09185 0.102201
170 1 0.463589 0.190725 0.0240577
290 2 0.314512 0.237212 0.0326319
323 2 0.220228 0.41979 0.107213
136 1 0.0408433 0.29408 0.110885
98 1 0.0972326 0.450567 0.0927978
11 1 0.19005 0.302399 0.084441
257 1 0.392293 0.338581 0.0497587
156 1 0.327372 0.465464 0.0615513
113 1 0.441151 0.435541 0.174641
7 1 0.144249 0.0424469 0.32124
231 1 0.0814184 0.179645 0.216788
246 1 0.181578 0.227958 0.317967
190 1 0.0441147 0.148809 0.374086
226 1 0.449212 0.140017 0.210896
135 1 0.342537 0.209417 0.314103
174 1 0.374295 0.0542154 0.335626
134 1 0.487713 0.180334 0.380885
87 1 0.254266 0.0856907 0.235118
341 2 0.260138 0.122941 0.355669
355 2 0.200442 0.271206 0.201747
301 2 0.237473 0.463187 0.294418
127 1 0.149092 0.375781 0.241715
110 1 0.136315 0.454474 0.368909
163 1 0.0205656 0.452564 0.229005
82 1 0.287644 0.363082 0.211758
121 1 0.443404 0.30222 0.241538
191 1 0.276677 0.359446 0.378334
95 1 0.396083 0.442483 0.333158
223 1 0.158927 0.110701 0.473373
325 2 0.0912874 0.216649 0.496703
321 2 0.248382 0.154314 0.55872
90 1 0.0112211 0.0994872 0.532873
329 2 0.389151 0.0176615 0.507828
255 1 0.336185 0.129607 0.476623
207 1 0.496141 0.0829053 0.504498
125 1 0.284562 0.0267781 0.572174
227 1 0.214195 0.261966 0.510563
240 1 0.0242822 0.320657 0.551005
175 1 0.223438 0.407842 0.517443
4 1 0.0771686 0.456563 0.515521
39 1 0.0948343 0.320914 0.404667
284 1 0.38663 0.267626 0.459408
354 2 0.318132 0.314499 0.575778
120 1 0.3818 0.415636 0.488949
84 1 0.0757674 0.129588 0.744042
168 1 0.195647 0.0580543 0.684754
342 2 0.146835 0.225561 0.72135
50 1 0.114418 0.181442 0.606483
188 1 0.236774 0.155013 0.795209
274 1 0.257375 0.233266 0.659337
312 2 0.301657 0.118301 0.666072
271 1 0.423786 0.0297805 0.640065
248 1 0.355855 0.0730315 0.783571
288 1 0.407048 0.197296 0.618326
109 1 0.0256601 0.259872 0.694395
92 1 0.0141059 0.428073 0.681091
130 1 0.233404 0.327553 0.778921
128 1 0.151453 0.344423 0.647387
57 1 0.486973 0.390626 0.766907
70 1 0.373823 0.283393 0.73884
266 1 0.433255 0.361627 0.625348
26 1 0.292678 0.415263 0.651867
304 2 0.348428 0.405524 0.783486
217 1 0.146901 0.0679297 0.88379
236 1 0.239045 0.14875 0.967039
204 1 0.108255 0.215038 0.993973
225 1 0.0123241 0.00710316 0.829556
211 1 0.0334397 0.0591851 0.992279
196 1 0.366757 0.223062 0.906947
65 1 0.405385 0.061369 0.929463
58 1 0.200135 0.464017 0.956692
219 1 0.105884 0.254612 0.847539
224 1 0.220485 0.298485 0.935454
155 1 0.0623666 0.361377 0.975901
36 1 0.11118 0.421997 0.832485
214 1 0.249616 0.484021 0.819734
140 1 0.359518 0.378618 0.918006
313 2 0.420245 0.473891 0.967567
294 2 0.466347 0.272363 0.817545
100 1 0.493936 0.311745 0.940778
22 1 0.130558 0.591965 0.044844
122 1 0.0350444 0.594633 0.182303
229 1 0.201161 0.749936 0.0868018
353 2 0.091115 0.698104 0.102255
94 1 0.18844 0.516366 0.187361
148 1 0.00306958 0.655851 0.0142427
80 1 0.276871 0.617698 0.102142
53 1 0.43818 0.586252 0.0898977
308 2 0.460913 0.708443 0.0437488
253 1 0.346458 0.747081 0.0281262
241 1 0.417724 0.71086 0.196342
260 1 0.068281 0.829239 0.0631187
49 1 0.190645 0.905871 0.111268
346 2 0.0664421 0.955303 0.0698449
185 1 0.464799 0.905723 0.0147571
280 1 0.447744 0.852459 0.160265
333 2 0.306993 0.852921 0.0980147
282 1 0.32202 0.961485 0.038989
63 1 0.372826 0.994678 0.187979
278 1 0.0781911 0.698741 0.320119
318 2 0.19063 0.623006 0.352386
306 2 0.105806 0.537655 0.279373
29 1 0.20432 0.671549 0.226
184 1 0.324084 0.547532 0.245479
28 1 0.325374 0.666081 0.353033
162 1 0.489086 0.56252 0.247343
12 1 0.490084 0.685708 0.340004
198 1 0.209151 0.753145 0.364158
116 1 0.15249 0.897798 0.395079
335 2 0.105102 0.932036 0.244881
222 1 0.144078 0.819968 0.219898
45 1 0.24208 0.927778 0.26747
55 1 0.0141729 0.848085 0.321282
350 2 0.363208 0.92681 0.328672
48 1 0.412639 0.810226 0.311466
169 1 0.292612 0.80748 0.221493
99 1 0.494178 0.960152 0.277821
178 1 0.186662 0.647418 0.48181
317 2 0.0901103 0.687684 0.567997
173 1 0.0462344 0.595265 0.448252
300 2 0.17352 0.532345 0.54204
202 1 0.432634 0.595399 0.473887
89 1 0.311426 0.557826 0.565474
52 1 0.34199 0.729116 0.508102
356 2 0.449459 0.701839 0.557498
152 1 0.28102 0.525285 0.409347
268 1 0.21635 0.801908 0.538159
247 1 0.137458 0.968085 0.544383
118 1 0.0662554 0.758385 0.458181
153 1 0.0113423 0.971942 0.423411
51 1 0.0354685 0.847534 0.591263
164 1 0.442446 0.944638 0.429612
83 1 0.311789 0.852322 0.407467
212 1 0.491033 0.805795 0.487137
205 1 0.37453 0.897073 0.568602
159 1 0.263106 0.998975 0.415295
143 1 0.226643 0.662046 0.638419
338 2 0.186322 0.624989 0.751773
210 1 0.069858 0.560744 0.761454
279 1 0.0204733 0.719343 0.686791
69 1 0.180904 0.511626 0.664876
93 1 0.0428067 0.580936 0.615351
302 2 0.309535 0.55116 0.721834
10 1 0.375396 0.644034 0.672382
106 1 0.455147 0.518391 0.610446
233 1 0.453174 0.678247 0.798508
327 2 0.124601 0.78968 0.656865
138 1 0.0488134 0.843202 0.759822
31 1 0.198555 0.893411 0.659996
117 1 0.175718 0.756696 0.787318
221 1 0.0597955 0.97201 0.67165
200 1 0.33499 0.934383 0.72173
345 2 0.413596 0.813358 0.789395
250 1 0.318889 0.77621 0.693935
359 2 0.250988 0.860847 0.794337
5 1 0.466694 0.795293 0.646175
8 1 0.1752 0.594447 0.884295
102 1 0.0073457 0.674308 0.838547
15 1 0.0430057 0.547363 0.919376
33 1 0.122633 0.733003 0.941277
68 1 0.407834 0.517023 0.825904
339 2 0.250961 0.691918 0.947432
232 1 0.320996 0.575688 0.962791
330 2 0.389493 0.690776 0.919261
43 1 0.480829 0.598383 0.935632
269 1 0.30158 0.63971 0.805549
42 1 0.0958923 0.920674 0.936699
358 2 0.132638 0.829444 0.87139
208 1 0.223862 0.843826 0.979059
160 1 0.151496 0.947017 0.800788
25 1 0.264931 0.978867 0.880777
270 1 0.394737 0.912685 0.856158
60 1 0.464438 0.781847 0.930446
344 2 0.368658 0.85539 0.961905
2 1 0.314411 0.773523 0.869276
73 1 0.600195 0.161294 0.104024
259 1 0.69022 0.0488595 0.067485
258 1 0.721721 0.140511 0.195777
16 1 0.769667 0.221005 0.0642685
324 2 0.830354 0.10856 0.100907
272 1 0.96825 0.0635725 0.139003
262 1 0.918725 0.212603 0.152979
74 1 0.924867 0.150505 0.00757645
309 2 0.674523 0.250638 0.145794
132 1 0.532292 0.297521 0.118283
296 2 0.606072 0.324714 0.0213511
21 1 0.525043 0.434777 0.0390522
44 1 0.674334 0.381358 0.114195
357 2 0.790758 0.35855 0.0640073
340 2 0.980664 0.405324 0.0681476
171 1 0.903453 0.303773 0.0376628
293 2 0.806051 0.263092 0.196166
230 1 0.875718 0.382601 0.162499
104 1 0.799015 0.480532 0.0715424
234 1 0.595086 0.0856352 0.235544
59 1 0.710482 0.0659344 0.33718
114 1 0.581715 0.2399 0.257355
305 2 0.705843 0.187303 0.313303
337 2 0.502406 0.0574702 0.366646
124 1 0.839255 0.223412 0.312352
336 2 0.970877 0.184931 0.262579
243 1 0.852159 0.084026 0.250593
209 1 0.99576 0.0145746 0.280641
216 1 0.746624 0.475376 0.230042
38 1 0.680161 0.430529 0.361233
158 1 0.583764 0.403719 0.24408
78 1 0.725061 0.311832 0.275412
264 1 0.503663 0.333158 0.377443
147 1 0.857754 0.391964 0.312276
192 1 0.982186 0.307241 0.266535
81 1 0.975598 0.429022 0.388199
314 2 0.718781 0.128247 0.541244
137 1 0.525723 0.232426 0.532691
3 1 0.620724 0.141245 0.428874
319 2 0.716528 0.0229818 0.449766
18 1 0.693339 0.00358871 0.578102
167 1 0.770108 0.196012 0.460814
265 1 0.829784 0.0680669 0.551653
76 1 0.91701 0.210932 0.595012
193 1 0.901066 0.116792 0.412072
111 1 0.681864 0.269217 0.568678
194 1 0.537046 0.401301 0.504416
129 1 0.702225 0.426007 0.539032
47 1 0.648115 0.291947 0.416874
201 1 0.873819 0.358978 0.513083
177 1 0.79772 0.468431 0.430291
310 2 0.770261 0.348512 0.413701
238 1 0.962067 0.260212 0.420178
351 2 0.810529 0.451211 0.589003
352 2 0.804796 0.266822 0.578527
9 1 0.660079 0.0671408 0.772015
303 2 0.633899 0.196088 0.741173
249 1 0.612078 0.141298 0.615432
297 2 0.59616 0.0250151 0.66869
119 1 0.524043 0.109671 0.723151
77 1 0.758365 0.16083 0.655969
115 1 0.887468 0.223738 0.748984
180 1 0.929204 0.0865505 0.689304
17 1 0.783382 0.00109179 0.719898
30 1 0.536329 0.256256 0.691049
144 1 0.600601 0.403885 0.662898
254 1 0.71339 0.302411 0.708062
150 1 0.737484 0.449235 0.691609
123 1 0.866524 0.35389 0.674593
34 1 0.679277 0.0793464 0.92159
133 1 0.740102 0.197989 0.833252
172 1 0.646221 0.219542 0.965083
79 1 0.552488 0.0713841 0.99229
199 1 0.509529 0.168045 0.865801
139 1 0.515582 0.0151363 0.835484
197 1 0.861504 0.091011 0.83951
298 2 0.782343 0.123464 0.954083
67 1 0.849584 0.238543 0.916426
131 1 0.990667 0.159915 0.867762
328 2 0.941486 0.0255318 0.921122
54 1 0.831667 0.0155644 0.980342
108 1 0.602656 0.287535 0.827678
316 2 0.739586 0.478191 0.929658
85 1 0.730183 0.346631 0.959677
206 1 0.550285 0.4605 0.884636
97 1 0.68351 0.416489 0.827928
256 1 0.83236 0.364708 0.817611
161 1 0.982656 0.325365 0.83977
281 1 0.898306 0.453101 0.958436
286 1 0.95121 0.482567 0.810728
292 2 0.984718 0.256791 0.963014
228 1 0.590624 0.539138 0.13408
157 1 0.587245 0.657102 0.0343971
145 1 0.72817 0.624878 0.144109
181 1 0.717504 0.748572 0.0653795
88 1 0.583828 0.687044 0.19277
19 1 0.652552 0.512914 0.00521088
35 1 0.871684 0.670676 0.0790691
86 1 0.965021 0.526138 0.0675013
61 1 0.997884 0.745527 0.182924
263 1 0.565801 0.798054 0.0854121
239 1 0.54612 0.964518 0.130143
332 2 0.713038 0.893313 0.0877552
183 1 0.850293 0.962176 0.122181
267 1 0.958036 0.92512 0.0211025
187 1 0.882675 0.819188 0.115627
334 2 0.962124 0.780577 0.0174059
261 1 0.987686 0.909357 0.174383
154 1 0.635061 0.566839 0.285847
142 1 0.651151 0.733036 0.321997
276 1 0.542246 0.507922 0.379762
71 1 0.883464 0.537094 0.203775
56 1 0.880447 0.708166 0.269481
189 1 0.781651 0.605254 0.318789
176 1 0.975561 0.589707 0.321604
360 2 0.87346 0.513712 0.33677
322 2 0.951795 0.74759 0.366339
72 1 0.719806 0.97989 0.202266
112 1 0.744943 0.779457 0.208077
331 2 0.616849 0.980642 0.293942
96 1 0.730447 0.905386 0.340314
32 1 0.562276 0.845535 0.365509
343 2 0.528057 0.784876 0.254254
182 1 0.625884 0.859464 0.228963
277 1 0.872305 0.885624 0.281653
195 1 0.796024 0.762832 0.392477
14 1 0.558918 0.662094 0.499055
66 1 0.696297 0.633098 0.448212
203 1 0.618156 0.538296 0.598141
320 2 0.652819 0.509553 0.458571
103 1 0.919732 0.505674 0.541496
91 1 0.958517 0.687701 0.550438
218 1 0.779472 0.560186 0.560557
146 1 0.769514 0.723086 0.549784
215 1 0.884475 0.643996 0.431329
307 2 0.615836 0.765474 0.443137
27 1 0.548882 0.928593 0.564517
149 1 0.673039 0.862388 0.491591
24 1 0.601972 0.772143 0.585337
251 1 0.591194 0.993775 0.430831
275 1 0.827825 0.975594 0.423696
235 1 0.791819 0.890434 0.590313
179 1 0.918991 0.83999 0.449134
283 1 0.933487 0.959467 0.573872
237 1 0.729683 0.592474 0.704073
151 1 0.532807 0.660015 0.657167
46 1 0.547369 0.530161 0.745179
273 1 0.629582 0.69886 0.775031
349 2 0.672015 0.68063 0.624507
105 1 0.855298 0.650548 0.663493
326 2 0.897152 0.5939 0.783461
20 1 0.87158 0.504492 0.684504
126 1 0.740932 0.758366 0.699151
23 1 0.509845 0.924225 0.71259
299 2 0.590815 0.792408 0.701625
220 1 0.665044 0.895869 0.691381
295 2 0.794803 0.855323 0.711968
186 1 0.915294 0.918005 0.734682
242 1 0.880402 0.775776 0.772476
166 1 0.888713 0.79118 0.617437
13 1 0.647184 0.581412 0.871583
291 2 0.553375 0.7175 0.878495
107 1 0.851317 0.747572 0.934737
141 1 0.883439 0.602961 0.914099
37 1 0.773281 0.668571 0.832642
101 1 0.796068 0.51974 0.820534
244 1 0.754917 0.619647 0.979078
1 1 0.629351 0.791323 0.947625
311 2 0.519924 0.91969 0.90381
40 1 0.639896 0.925073 0.839153
245 1 0.625433 0.942114 0.994516
165 1 0.55104 0.819531 0.812582
289 2 0.779019 0.975046 0.845661
287 1 0.793395 0.86822 0.998333
213 1 0.760553 0.828543 0.834087
64 1 0.889372 0.917581 0.876055
75 1 0.989407 0.801139 0.902719
ITEM: TIMESTEP
60000
ITEM: NUMBER OF ATOMS
360
ITEM: BOX BOUNDS pp pp pp
0.0000000000000000e+00 6.6943295008216896e+00
0.0000000000000000e+00 6.6943295008216896e+00
0.0000000000000000e+00 6.6943295008216896e+00
ITEM: ATOMS id type xs ys zs
315 2 0.2505 0.0314252 0.0545513
7 1 0.0892505 0.11307 0.0987034
62 1 0.230944 0.162763 0.0460561
98 1 0.270895 0.380313 0.0853754
337 2 0.466229 0.0492932 0.129846
82 1 0.372997 0.099183 0.0637137
290 2 0.45588 0.200775 0.11468
224 1 0.417388 0.334403 0.16028
214 1 0.369576 0.492698 0.151841
231 1 0.160593 0.204694 0.182221
322 2 0.181209 0.274658 0.0676799
262 1 0.142322 0.368826 0.16259
236 1 0.128048 0.381203 -0.00213401
192 1 0.0513805 0.258631 0.0977016
318 2 0.340451 0.274302 0.0619654
285 1 0.32943 0.203504 0.173981
174 1 0.266269 0.0539739 0.176701
15 1 0.39392 0.413727 -0.00348021
40 1 0.0119715 0.00649039 0.195606
347 2 0.226147 0.24494 0.278218
350 2 0.14071 0.0840531 0.23228
87 1 0.0170615 0.180172 0.247061
153 1 0.150215 0.156712 0.342743
159 1 0.273306 0.0547495 0.332857
113 1 0.42306 0.426868 0.290368
114 1 0.454504 0.160729 0.383781
94 1 0.247451 0.306542 0.391207
274 1 0.415709 0.0782327 0.24682
301 2 0.3747 0.320246 0.341941
190 1 0.326364 0.199874 0.324532
28 1 0.282964 0.349591 0.252882
29 1 0.0939904 0.462824 0.278628
204 1 0.114214 0.29997 0.305234
142 1 0.247503 0.462807 0.356072
11 1 0.469988 0.231312 0.256545
227 1 0.00980173 0.118419 0.418991
223 1 0.223919 0.154994 0.486545
264 1 0.482187 0.31203 0.406686
128 1 0.365635 0.395422 0.463196
134 1 0.365558 0.236411 0.479755
331 2 0.354797 0.108227 0.447347
65 1 0.469931 0.110265 0.538014
92 1 0.0942128 0.252058 0.443731
178 1 0.0502069 0.351941 0.551595
162 1 0.139042 0.418965 0.443371
95 1 0.219601 0.332388 0.545025
284 1 0.486393 0.269214 0.567871
276 1 0.47267 0.429836 0.560438
309 2 0.258355 0.443363 0.495817
247 1 0.132475 0.0547978 0.593008
24 1 0.325719 0.102205 0.598138
143 1 0.121156 0.0192958 0.407524
212 1 0.269894 0.0105135 0.472372
90 1 0.033591 0.135295 0.69946
252 1 0.222754 0.0528731 0.740949
140 1 0.324104 0.251837 0.630772
188 1 0.298466 0.192146 0.778017
344 2 0.166705 0.45394 0.743597
217 1 0.444207 0.168299 0.678768
294 2 0.407258 0.0436003 0.67304
175 1 0.317913 0.420215 0.638915
191 1 0.443041 0.310041 0.730897
81 1 0.03252 0.443121 0.67749
210 1 0.0420838 0.291389 0.69321
120 1 0.205982 0.326304 0.709216
193 1 0.140925 0.203864 0.60787
232 1 0.44253 0.453023 0.724452
26 1 0.139203 0.191805 0.781675
205 1 0.173849 0.47664 0.617287
36 1 0.315326 0.381059 0.794429
219 1 0.219727 0.119374 0.895605
131 1 0.111578 0.235172 0.940605
359 2 0.384933 0.267825 0.870439
54 1 0.00158144 0.406463 0.919389
267 1 0.0184701 0.106342 0.844981
20 1 0.277913 0.270919 0.936771
99 1 0.377173 0.145855 0.910869
25 1 0.493925 0.0455067 0.914008
183 1 0.141773 0.0353739 0.986696
286 1 0.154991 0.346298 0.847403
117 1 0.252577 0.434599 0.923463
194 1 0.465977 0.380236 0.866469
69 1 0.48911 0.20526 0.826904
180 1 0.000616296 0.271877 0.839262
50 1 0.360977 0.0459584 0.798263
196 1 0.435054 0.257334 0.988651
292 2 0.0398435 0.389524 0.806407
148 1 0.0215314 0.672401 0.0523159
327 2 0.145707 0.633041 0.0527436
49 1 0.169872 0.67552 0.169559
33 1 0.0750453 0.53512 0.111763
139 1 0.272078 0.727851 0.0783787
80 1 0.461732 0.674789 0.173928
329 2 0.306319 0.606464 0.138321
45 1 0.14825 0.957421 0.120233
63 1 0.407727 0.813614 0.0822903
2 1 0.247436 0.542006 0.0454462
41 1 0.262161 0.884446 0.0501043
346 2 0.241628 0.809077 0.165335
330 2 0.08356 0.925532 0.0174428
263 1 0.377284 0.956865 0.144271
198 1 0.136195 0.804694 0.0891115
354 2 0.39656 0.987355 0.0195738
53 1 0.397544 0.568114 0.0347708
307 2 0.0645603 0.886838 0.175601
22 1 0.213427 0.502849 0.197569
48 1 0.187912 0.610421 0.323682
83 1 0.154277 0.9601 0.270298
176 1 0.0442661 0.550855 0.386795
118 1 0.0378513 0.629116 0.258044
38 1 0.431859 0.686806 0.339443
154 1 0.314552 0.582148 0.262293
179 1 0.313151 0.911766 0.269957
278 1 0.0696462 0.849579 0.373133
164 1 0.457812 0.847683 0.23203
55 1 0.0665242 0.774411 0.221642
21 1 0.486221 0.562886 0.264198
116 1 0.206538 0.806984 0.282255
112 1 0.33566 0.741189 0.226229
12 1 0.396477 0.84832 0.385129
32 1 0.429766 0.997812 0.388556
5 1 0.295224 0.721886 0.397178
52 1 0.163234 0.568194 0.495614
184 1 0.214103 0.716307 0.544932
110 1 0.0561607 0.670353 0.553663
136 1 0.0403165 0.514492 0.545788
268 1 0.225248 0.879538 0.405359
23 1 0.327449 0.809654 0.535809
149 1 0.421448 0.669695 0.490586
27 1 0.336043 0.536164 0.552229
296 2 0.475451 0.564072 0.500324
167 1 0.0410812 0.900415 0.527948
250 1 0.186372 0.898704 0.54692
320 2 0.296696 0.601204 0.4558
338 2 0.101162 0.78892 0.508863
233 1 0.388997 0.943815 0.528059
152 1 0.106035 0.706055 0.406058
158 1 0.393759 0.537534 0.405226
229 1 0.144785 0.63524 0.673503
125 1 0.184713 0.916353 0.697481
273 1 0.464764 0.572921 0.6253
333 2 0.233754 0.673086 0.754662
185 1 0.475518 0.71065 0.71056
269 1 0.283881 0.538985 0.725552
68 1 0.342461 0.658004 0.641279
351 2 0.407389 0.575383 0.749603
321 2 0.266562 0.97447 0.60959
42 1 0.0297867 0.972274 0.687781
138 1 0.114599 0.789258 0.654305
202 1 0.272654 0.784841 0.685025
297 2 0.393862 0.815381 0.650024
288 1 0.358916 0.928994 0.677882
261 1 0.0525005 0.859485 0.781559
356 2 0.244794 0.587202 0.608473
208 1 0.00435213 0.725033 0.76077
353 2 0.091996 0.650997 0.799296
107 1 0.0859166 0.555672 0.964951
130 1 0.300135 0.998632 0.939369
169 1 0.135907 0.714811 0.947759
155 1 0.211894 0.592442 0.852115
58 1 0.385235 0.516131 0.875932
241 1 0.343885 0.658083 0.828151
282 1 0.278366 0.772923 0.91362
119 1 0.412698 0.723335 0.962278
221 1 0.272533 0.894243 0.825581
326 2 0.302758 0.637433 0.951863
160 1 0.128696 0.981961 0.82796
168 1 0.155119 0.753283 0.802972
61 1 0.145396 0.86191 0.92606
225 1 0.0115966 0.979362 0.927138
211 1 0.410403 0.8828 0.941598
299 2 0.485993 0.807864 0.876272
289 2 0.420452 0.925213 0.820223
157 1 0.494031 0.628791 0.863708
256 1 0.0736776 0.516327 0.815619
200 1 0.389629 0.804364 0.804367
170 1 0.665097 0.164741 0.0449227
348 2 0.624098 0.0494366 0.0792846
181 1 0.724127 0.0796223 0.164592
228 1 0.54344 0.487631 0.139404
226 1 0.517517 0.129597 0.0361951
6 1 0.825262 0.15084 0.00886297
222 1 0.934734 0.125751 0.13118
187 1 0.758712 0.243169 0.133765
302 2 0.51699 0.381096 0.0545308
44 1 0.63834 0.386979 0.0483088
100 1 0.563546 0.266198 0.115694
298 2 0.854722 0.457519 0.109469
85 1 0.780805 0.371413 0.0641772
171 1 0.973047 0.410373 0.0728684
124 1 0.903173 0.278409 0.110615
121 1 0.574232 0.116079 0.17689
189 1 0.756538 -0.00433428 0.0302445
182 1 0.661671 0.202451 0.257116
257 1 0.58294 0.0867417 0.333002
73 1 0.745896 0.0856048 0.318259
209 1 0.904395 0.0748204 0.277705
201 1 0.885281 0.248232 0.288585
272 1 0.994728 0.356139 0.213381
323 2 0.577813 0.26972 0.337677
305 2 0.751328 0.294755 0.268103
156 1 0.553347 0.376369 0.265491
17 1 0.735453 0.22455 0.378506
355 2 1.00069 0.264688 0.350768
339 2 0.749042 0.437423 0.300574
360 2 0.895057 0.465626 0.314025
240 1 0.815042 0.363145 0.388524
239 1 0.663049 0.378213 0.371956
281 1 0.840931 0.381635 0.228913
172 1 0.53792 0.457812 0.394246
293 2 0.820412 0.148768 0.20555
234 1 0.691774 0.38122 0.199628
3 1 0.707694 0.117156 0.483281
266 1 0.577664 0.206501 0.453929
312 2 0.620819 0.232025 0.571939
246 1 0.899828 0.316944 0.527617
123 1 0.837335 0.164696 0.56301
243 1 0.846026 0.0640332 0.437157
335 2 0.770634 0.0243857 0.550152
238 1 0.903715 0.47248 0.58605
251 1 0.886409 0.210927 0.427426
249 1 0.758664 0.428643 0.523758
254 1 0.742234 0.292635 0.514036
137 1 0.607127 0.368175 0.505211
39 1 0.99113 0.199592 0.562416
255 1 0.574139 0.016027 0.469338
109 1 0.94362 0.0414375 0.592233
173 1 0.900732 0.501057 0.443002
147 1 0.989272 0.379093 0.409314
144 1 0.605287 0.106364 0.625796
304 2 0.558189 0.221853 0.696156
132 1 0.699976 0.239179 0.672765
77 1 0.740429 0.07686 0.660274
106 1 0.628208 0.139499 0.763883
186 1 0.908573 0.0366216 0.772473
133 1 0.808049 0.355503 0.649933
115 1 0.899868 0.238144 0.6997
341 2 0.866281 0.0989443 0.664995
325 2 0.696869 0.364064 0.742902
30 1 0.579324 0.359503 0.671921
111 1 0.69296 0.478545 0.650266
324 2 0.792336 0.174859 0.760141
310 2 0.567621 0.484597 0.630047
342 2 0.920944 0.492444 0.717276
300 2 0.953162 0.352894 0.633357
97 1 0.771149 0.458823 0.788995
161 1 0.915974 0.371721 0.754757
206 1 0.794002 0.294238 0.793475
70 1 0.511032 0.0530762 0.752225
314 2 0.692692 0.352133 0.602213
16 1 0.845282 0.466093 0.977431
108 1 0.709302 0.182001 0.887672
308 2 0.574762 0.148191 0.903642
84 1 0.978579 0.175404 0.984539
357 2 0.840236 0.400949 0.872709
34 1 0.654169 0.0443066 0.944802
74 1 0.871363 0.308618 0.949237
72 1 0.88607 0.170534 0.8499
197 1 0.857562 0.0352875 0.924599
43 1 0.615861 0.292335 0.80027
303 2 0.609569 0.0428042 0.839982
313 2 0.593997 0.385586 0.928561
259 1 0.5804 0.271264 0.956044
258 1 0.716498 0.346272 0.903087
67 1 0.764767 0.0585541 0.807614
328 2 0.997407 0.308819 0.993317
203 1 0.616176 0.437283 0.810151
102 1 0.697681 0.483424 0.942263
311 2 0.744974 0.253604 0.993248
270 1 0.62886 0.640562 0.158861
145 1 0.85671 0.709761 0.0185415
163 1 0.725307 0.515856 0.0891438
195 1 0.842492 0.984696 0.172271
215 1 0.836151 0.836616 0.106477
35 1 0.789201 0.653948 0.150016
104 1 0.921978 0.56121 0.0708281
287 1 0.931284 0.976921 0.0440596
122 1 0.990713 0.845819 0.0734406
19 1 0.687843 0.789316 0.198022
199 1 0.525165 0.960786 0.0488769
31 1 0.543447 0.66377 0.0233042
165 1 0.549307 0.806266 0.125881
253 1 0.709663 0.802134 0.0387705
59 1 0.656652 0.928226 0.131081
71 1 0.933791 0.702142 0.169104
340 2 0.602112 0.554716 0.0655164
316 2 0.807428 0.589798 0.0306385
86 1 0.939706 0.501229 0.199468
177 1 0.568184 0.733763 0.296357
78 1 0.555514 0.60464 0.388658
129 1 0.704641 0.663009 0.301367
230 1 0.797126 0.528718 0.222906
47 1 0.745437 0.534191 0.384933
319 2 0.779418 0.881548 0.217222
135 1 0.901838 0.593718 0.31551
88 1 0.560885 0.892169 0.361674
265 1 0.841991 0.938951 0.334772
275 1 0.936747 0.857396 0.22474
127 1 0.818709 0.757785 0.263974
66 1 0.700005 0.817257 0.342092
245 1 0.676943 0.954988 0.276638
343 2 0.585733 0.870816 0.237122
216 1 0.640391 0.516208 0.272514
56 1 0.961511 0.751932 0.343625
277 1 0.991134 0.975273 0.345879
79 1 0.52164 0.983466 0.214441
207 1 0.720116 0.951966 0.439905
10 1 0.558753 0.662377 0.559029
218 1 0.69429 0.696952 0.463206
150 1 0.623146 0.524516 0.518937
93 1 0.781075 0.576661 0.530427
8 1 0.913611 0.634642 0.550812
345 2 0.820686 0.713788 0.536131
14 1 0.524818 0.761369 0.436692
18 1 0.667184 0.948349 0.585104
146 1 0.635147 0.833485 0.499818
91 1 0.843095 0.672262 0.416875
235 1 0.876195 0.935224 0.513049
271 1 0.818039 0.818291 0.431595
51 1 0.94757 0.771631 0.495922
317 2 0.980631 0.660096 0.434973
237 1 0.503814 0.827901 0.584899
352 2 0.938397 0.880006 0.413869
336 2 0.975646 0.996981 0.468094
166 1 0.774936 0.829567 0.582029
101 1 0.711458 0.688308 0.609048
89 1 0.570784 0.571672 0.734694
349 2 0.606783 0.691862 0.691069
358 2 0.966335 0.724497 0.638913
105 1 0.718915 0.670205 0.758552
279 1 0.853875 0.721262 0.695683
242 1 0.826801 0.566583 0.692043
283 1 0.929625 0.841966 0.65583
220 1 0.506193 0.974321 0.610139
76 1 0.769353 0.83865 0.747503
103 1 0.643263 0.810381 0.664598
9 1 0.652053 0.970737 0.742735
306 2 0.902596 0.625434 0.789583
126 1 0.83293 0.954944 0.662955
280 1 0.520357 0.878936 0.741005
75 1 0.99288 0.594759 0.680827
295 2 0.653155 0.855517 0.794811
60 1 0.642454 0.598615 0.868304
244 1 0.717214 0.764308 0.88625
4 1 0.916506 0.505156 0.838918
96 1 0.840842 0.881896 0.95166
37 1 0.793237 0.592418 0.894021
64 1 0.864871 0.729603 0.85404
141 1 0.99328 0.638781 0.889303
248 1 0.565449 0.912833 0.877357
1 1 0.557264 0.804115 0.983778
151 1 0.728063 0.928441 0.877478
260 1 0.987506 0.821997 0.921997
334 2 0.966049 0.526248 0.955379
57 1 0.525028 0.50274 0.972266
291 2 0.51048 0.504098 0.833307
46 1 0.58432 0.752397 0.805258
332 2 0.653247 0.902366 0.984648
13 1 0.69681 0.654263 0.997273
213 1 0.904881 0.89643 0.807965
ITEM: TIMESTEP
120000
ITEM: NUMBER OF ATOMS
360
ITEM: BOX BOUNDS pp pp pp
0.0000000000000000e+00 6.6943295008216896e+00
0.0000000000000000e+00 6.6943295008216896e+00
0.0000000000000000e+00 6.6943295008216896e+00
ITEM: ATOMS id type xs ys zs
236 1 0.206498 0.0434787 0.125737
359 2 0.184351 0.183029 0.122473
287 1 0.0849181 0.202837 0.0268806
285 1 0.24223 0.317342 0.143625
358 2 0.11713 0.0283104 0.0129749
328 2 0.14825 0.324764 0.0242597
270 1 0.361666 0.428622 0.117785
99 1 0.341194 0.0180778 0.0413037
164 1 0.453306 0.021098 0.163512
343 2 0.334008 0.0434885 0.167825
20 1 0.312529 0.165635 0.119181
256 1 0.210374 0.464821 0.0598257
29 1 0.0982065 0.338619 0.171847
33 1 0.404794 0.292602 0.0785853
11 1 0.495629 0.159705 0.0907785
274 1 0.0677137 0.188719 0.186363
174 1 0.0511307 0.0257459 0.136736
74 1 0.0554605 0.405819 0.0125138
62 1 0.210293 0.164703 0.245467
231 1 0.127786 0.17062 0.389149
341 2 0.11994 0.0468955 0.231843
223 1 0.306603 0.257347 0.349694
301 2 0.313414 0.240815 0.219437
54 1 0.0193703 0.42194 0.284339
114 1 0.373596 0.130576 0.28132
331 2 0.248798 0.120698 0.362867
190 1 0.457413 0.239853 0.209563
94 1 0.461369 0.294706 0.351252
247 1 0.017786 0.0781338 0.292936
204 1 0.186055 0.31132 0.282194
107 1 0.219128 0.453634 0.223023
309 2 0.255335 0.423277 0.357732
98 1 0.339123 0.364537 0.263333
83 1 0.267856 0.0265059 0.277186
176 1 0.144572 0.471651 0.364116
82 1 0.138823 0.0183426 0.36998
178 1 0.0795386 0.321833 0.3838
128 1 0.391309 0.446413 0.39112
250 1 0.252345 0.16148 0.491806
39 1 0.0246449 0.0757793 0.45833
221 1 0.158707 0.0282803 0.532796
265 1 0.0151361 0.374316 0.523956
134 1 0.170825 0.372899 0.598769
212 1 0.502755 0.0193656 0.447958
255 1 0.411113 0.159561 0.464147
338 2 0.478109 0.0925515 0.544793
266 1 0.317995 0.0314726 0.427611
360 2 0.247932 0.260184 0.577671
92 1 0.120861 0.229073 0.536136
355 2 0.11598 0.455682 0.514457
227 1 0.221465 0.313504 0.450833
32 1 0.361883 0.216427 0.597148
10 1 0.372422 0.464731 0.551073
136 1 0.258497 0.460352 0.481704
30 1 0.384097 0.318038 0.474294
252 1 0.31126 0.046772 0.576917
197 1 0.0338047 0.118329 0.603673
143 1 0.168397 0.0208307 0.692578
160 1 0.0550948 0.118433 0.753699
186 1 0.190693 0.172363 0.65199
276 1 0.316711 0.359641 0.641675
24 1 0.435669 0.273032 0.719853
344 2 0.419053 0.441995 0.691859
294 2 0.415654 0.0773908 0.653925
120 1 0.312788 0.141091 0.726555
314 2 0.260221 0.476479 0.625459
90 1 0.181089 0.304914 0.750807
155 1 0.202272 0.457443 0.727903
175 1 0.0623294 0.268583 0.670291
210 1 0.0583734 0.475172 0.651993
84 1 0.0707359 0.404946 0.790999
101 1 0.485683 0.374503 0.603893
57 1 0.354892 0.386019 0.793639
284 1 0.442095 0.127702 0.794391
45 1 0.187048 0.16842 0.818742
180 1 0.128989 0.271348 0.900359
72 1 0.0749692 0.0970121 0.907219
26 1 0.292526 0.0786568 0.874928
140 1 0.319458 0.250461 0.832965
340 2 0.434159 0.458471 0.861291
203 1 0.472474 0.313266 0.883231
117 1 0.244857 0.378485 0.897446
15 1 0.276464 0.260559 0.988459
193 1 0.152258 0.499041 0.905824
2 1 0.378161 0.404115 0.969938
196 1 0.399966 0.171153 0.963127
322 2 0.283364 0.498957 0.955474
289 2 0.430031 0.0566688 0.896244
262 1 0.210795 0.119605 1.00429
304 2 0.0577731 0.240439 0.792502
171 1 0.0551554 0.64921 0.0968214
38 1 0.20958 0.611348 0.155021
320 2 0.314116 0.536374 0.187056
315 2 0.423481 0.923642 0.0585597
263 1 0.268132 0.750497 0.100503
112 1 0.368411 0.656058 0.169989
208 1 0.335867 0.561421 0.0602235
22 1 0.415373 0.802132 0.111053
224 1 0.306647 0.913993 0.18296
49 1 0.125251 0.764863 0.167601
61 1 0.163604 0.903369 0.0929824
16 1 0.0306349 0.819398 0.0465712
219 1 0.318083 0.866911 0.0241608
353 2 0.0938252 0.538609 0.0442683
148 1 0.0802286 0.509217 0.175596
81 1 0.20664 0.611777 0.00682098
28 1 0.470295 0.534757 0.10631
282 1 0.468084 0.664067 0.0372668
55 1 0.0820423 0.647029 0.263423
327 2 0.171519 0.558419 0.274802
48 1 0.22609 0.718246 0.283207
71 1 0.0192934 0.871409 0.20102
177 1 0.425706 0.519146 0.25415
290 2 0.405728 0.664579 0.309026
268 1 0.0237801 0.83497 0.357193
113 1 0.297417 0.582434 0.320466
319 2 0.116534 0.762938 0.296073
159 1 0.148504 0.921655 0.248034
79 1 0.410447 0.96243 0.300943
311 2 0.229025 0.824205 0.215907
80 1 0.2571 0.868786 0.32992
139 1 0.367433 0.786245 0.275111
318 2 0.0380458 0.950456 0.313471
47 1 0.513579 0.6956 0.232272
110 1 0.121835 0.703899 0.532018
162 1 0.0458733 0.565842 0.492687
142 1 0.166223 0.620981 0.409834
321 2 0.13719 0.907872 0.432515
149 1 0.423263 0.595792 0.442629
154 1 0.438923 0.73363 0.52423
27 1 0.300205 0.617879 0.541441
280 1 0.258945 0.770195 0.566444
356 2 0.0357656 0.80297 0.495684
68 1 0.0299254 0.694121 0.409637
167 1 0.0186326 0.924229 0.479616
185 1 0.133309 0.866315 0.573778
5 1 0.404068 0.870747 0.429371
41 1 0.249159 0.90922 0.490984
12 1 0.322483 0.72169 0.416355
339 2 0.42613 0.605787 0.568008
95 1 0.168609 0.555812 0.577453
50 1 0.432688 0.943301 0.565905
152 1 0.164809 0.778793 0.414507
8 1 0.2169 0.626162 0.702684
147 1 0.0538241 0.62248 0.644026
242 1 0.0975998 0.725199 0.780457
184 1 0.0459325 0.965853 0.646668
116 1 0.390395 0.809063 0.661526
52 1 0.25721 0.773688 0.748847
46 1 0.467673 0.681313 0.676615
269 1 0.354189 0.545986 0.687016
349 2 0.332706 0.691658 0.663457
205 1 0.0285552 0.786785 0.647231
229 1 0.143357 0.865018 0.715829
351 2 0.148474 0.718726 0.665449
286 1 0.0995707 0.560956 0.789979
42 1 0.26684 0.898447 0.642535
232 1 0.460052 0.554953 0.788648
36 1 0.371793 1.00874 0.749866
333 2 0.33427 0.867984 0.753189
279 1 0.215102 0.675428 0.863938
53 1 0.299734 0.539529 0.835096
102 1 0.0571846 0.622266 0.929976
241 1 0.46248 0.799214 0.966786
326 2 0.458098 0.689407 0.904052
138 1 0.301201 0.822696 0.880779
200 1 0.40304 0.942424 0.893583
198 1 0.346809 0.690872 0.964786
119 1 0.433716 0.819133 0.79781
168 1 0.131463 0.867207 0.873295
13 1 0.0111483 0.770422 0.909932
96 1 0.0154266 0.935356 0.959393
169 1 0.423035 0.550008 0.938086
202 1 0.24816 0.951017 0.795709