ITEM: TIMESTEP
0
ITEM: NUMBER OF ATOMS
360
ITEM: BOX BOUNDS pp pp pp
0.0000000000000000e+00 6.6943295008216896e+00
0.0000000000000000e+00 6.6943295008216896e+00
0.0000000000000000e+00 6.6943295008216896e+00
ITEM: ATOMS id type xs ys zs
287 1 0.0104853 0.162044 0.0906178
202 1 0.140178 0.0789616 0.00436649
167 1 0.224119 0.0308473 0.173685
72 1 0.0657334 0.0314441 0.156596
155 1 0.118908 0.231295 0.0114887
341 2 0.129016 0.155638 0.131588
200 1 0.283382 0.024 0.0320655
254 1 0.464695 0.177906 0.10131
15 1 0.250104 0.173422 0.0936705
262 1 0.365534 0.0790829 0.148875
329 2 0.35662 0.179688 0.0256013
29 1 0.105606 0.27498 0.174083
171 1 0.22778 0.335106 0.086075
56 1 0.0138529 0.404464 0.196661
253 1 0.179312 0.495009 0.0953639
328 2 0.192228 0.384771 0.195737
102 1 0.111316 0.390362 0.00515693
190 1 0.361488 0.285283 0.12593
317 2 0.434836 0.396749 0.152372
117 1 0.37068 0.420242 0.024051
38 1 0.31199 0.427949 0.168826
114 1 0.476357 0.30597 0.0209537
7 1 0.113858 0.0430325 0.299217
285 1 0.0894069 0.195343 0.381808
170 1 0.0236078 0.157682 0.250016
236 1 0.205248 0.150916 0.279082
11 1 0.430699 0.0381727 0.283634
62 1 0.380197 0.18889 0.241897
302 2 0.478909 0.246325 0.319183
94 1 0.324513 0.128852 0.372869
270 1 0.194892 0.48083 0.261956
204 1 0.118016 0.346273 0.311009
32 1 0.234247 0.253192 0.390515
20 1 0.259301 0.289632 0.256345
223 1 0.391822 0.368347 0.269091
136 1 0.293571 0.416259 0.380742
156 1 0.493445 0.494146 0.23536
24 1 0.172286 0.161029 0.514112
338 2 0.064869 0.0625004 0.423327
345 2 0.189545 0.0355324 0.564011
231 1 0.21788 0.0435742 0.429087
250 1 0.0557538 0.0844659 0.579004
303 2 0.302422 0.195381 0.498944
201 1 0.419722 0.16366 0.519621
41 1 0.317983 0.0560815 0.559925
321 2 0.457343 0.038356 0.524134
255 1 0.142653 0.438057 0.429438
54 1 0.124981 0.295061 0.49175
314 2 0.229284 0.491967 0.500876
265 1 0.020068 0.34072 0.595968
95 1 0.157651 0.403964 0.582843
120 1 0.34914 0.462553 0.521858
30 1 0.383479 0.275486 0.413182
101 1 0.394666 0.317242 0.560659
344 2 0.264271 0.351621 0.497902
301 2 0.429022 0.402446 0.456132
360 2 0.0828179 0.0949509 0.706626
42 1 0.191498 0.125275 0.661746
355 2 0.101981 0.223257 0.602502
277 1 0.0910192 0.190252 0.796147
143 1 0.242978 0.20949 0.77962
116 1 0.289038 0.00484489 0.707991
137 1 0.460899 0.0531326 0.67706
50 1 0.372403 0.192735 0.658333
284 1 0.379027 0.114197 0.796913
227 1 0.154057 0.313784 0.707783
326 2 0.204006 0.429783 0.736755
276 1 0.0630081 0.452342 0.697637
140 1 0.0139782 0.337246 0.798233
2 1 0.254331 0.25793 0.604773
212 1 0.440923 0.319102 0.737453
291 2 0.386942 0.46921 0.786114
53 1 0.296634 0.408536 0.653534
57 1 0.455444 0.458952 0.64023
60 1 0.295115 0.361395 0.798874
358 2 0.135082 0.159472 0.910658
252 1 0.195659 0.0626327 0.800272
74 1 0.0156549 0.117486 0.919787
196 1 0.268592 0.141804 0.922905
203 1 0.430975 0.204864 0.905567
99 1 0.429571 0.0760109 0.980285
331 2 0.012399 0.25454 0.918531
45 1 0.160673 0.291684 0.882018
90 1 0.123958 0.45515 0.83786
214 1 0.240444 0.441185 0.937005
191 1 0.312739 0.2862 0.954446
340 2 0.366416 0.258017 0.815403
215 1 0.430862 0.375569 0.883075
16 1 0.107281 0.664274 0.0549205
278 1 0.104543 0.735943 0.185803
353 2 0.169044 0.598882 0.146856
180 1 0.0183691 0.533391 0.0717228
198 1 0.258093 0.717961 0.14153
47 1 0.329735 0.584493 0.135295
208 1 0.46713 0.536685 0.0495744
263 1 0.422516 0.708926 0.166812
9 1 0.35861 0.650545 0.0012045
311 2 0.290344 0.52094 0.0291099
19 1 0.0117237 0.831136 0.100328
337 2 0.163125 0.8105 0.0676534
183 1 0.140478 0.934234 0.0369852
209 1 0.13474 0.903332 0.183736
119 1 0.388132 0.806766 0.024355
71 1 0.272278 0.87597 0.118184
26 1 0.407516 0.952042 0.0735052
96 1 0.110822 0.730583 0.396653
327 2 0.0524098 0.669824 0.288355
49 1 0.186902 0.655508 0.276821
173 1 0.0712271 0.579959 0.384907
281 1 0.0707129 0.556105 0.229528
322 2 0.30837 0.684865 0.28879
107 1 0.351886 0.548397 0.287971
39 1 0.00985509 0.945458 0.378287
152 1 0.160814 0.918215 0.367854
55 1 0.0404727 0.820037 0.294843
61 1 0.244905 0.795874 0.268559
241 1 0.38508 0.867422 0.228258
139 1 0.41281 0.756154 0.33147
159 1 0.286992 0.960006 0.305388
318 2 0.164551 0.666853 0.486137
110 1 0.034111 0.667408 0.52144
210 1 0.129135 0.551128 0.531572
271 1 0.218944 0.577618 0.40537
66 1 0.44844 0.521007 0.41822
176 1 0.306527 0.606063 0.529885
286 1 0.450033 0.663489 0.475996
339 2 0.351176 0.610827 0.407648
310 2 0.437137 0.546472 0.549869
48 1 0.278157 0.723785 0.421163
283 1 0.0232332 0.820255 0.490609
221 1 0.110089 0.953127 0.51356
261 1 0.183917 0.818511 0.509058
80 1 0.415053 0.916383 0.56772
12 1 0.308126 0.765895 0.587307
185 1 0.25504 0.919821 0.584645
224 1 0.311299 0.867577 0.430292
315 2 0.389314 0.778279 0.472516
73 1 0.499981 0.83264 0.458653
82 1 0.385847 0.999531 0.432452
5 1 0.481527 0.780197 0.599584
27 1 0.187353 0.53165 0.67351
8 1 0.249549 0.666944 0.716861
142 1 0.146752 0.713957 0.611785
356 2 0.123291 0.726714 0.729522
37 1 0.0461695 0.612486 0.67599
232 1 0.449322 0.617232 0.774876
154 1 0.372547 0.748224 0.706714
279 1 0.34462 0.55869 0.671623
299 2 0.396961 0.675806 0.603897
242 1 0.136663 0.978726 0.679518
351 2 0.111918 0.855143 0.607078
174 1 0.0678488 0.870252 0.762284
280 1 0.217772 0.822755 0.704782
25 1 0.462159 0.879307 0.730094
294 2 0.348608 0.899101 0.67058
292 2 0.446082 0.996882 0.798948
81 1 0.202242 0.596512 0.946089
330 2 0.105715 0.67118 0.929816
22 1 0.238576 0.73781 0.987195
4 1 0.192989 0.746885 0.847534
213 1 0.000398534 0.589083 0.931291
298 2 0.117001 0.514475 0.948798
147 1 0.0170877 0.724419 0.846964
246 1 0.118225 0.61477 0.820441
228 1 0.375167 0.528754 0.90932
138 1 0.331044 0.669912 0.855427
58 1 0.260082 0.515273 0.806422
97 1 0.457555 0.738569 0.8972
13 1 0.192765 0.920393 0.830422
125 1 0.0571658 0.971646 0.896015
219 1 0.103972 0.816613 0.942444
348 2 0.207115 0.988764 0.934713
333 2 0.0143833 0.895856 0.986196
343 2 0.335545 0.780895 0.906751
248 1 0.468904 0.915128 0.895063
52 1 0.275688 0.879658 0.951747
144 1 0.332105 0.874696 0.806868
36 1 0.33716 0.999241 0.884561
199 1 0.613024 0.107085 0.114533
305 2 0.573015 0.239312 0.104801
359 2 0.502667 0.0607706 0.0744886
75 1 0.728632 0.172606 0.0383154
230 1 0.748671 0.0833143 0.182489
247 1 0.920326 0.0595306 0.17545
34 1 0.809124 0.0279724 0.0481957
195 1 0.864854 0.204127 0.140091
267 1 0.989773 0.0161129 0.0354265
320 2 0.646446 0.485814 0.183477
158 1 0.515771 0.3025 0.193396
141 1 0.726671 0.402023 0.135836
169 1 0.653115 0.313226 0.043301
3 1 0.558261 0.423875 0.102553
354 2 0.763186 0.284771 0.14755
275 1 0.878399 0.445298 0.0704172
192 1 0.837569 0.30555 0.00770109
256 1 0.992895 0.321888 0.0688076
148 1 0.864029 0.35094 0.197854
309 2 0.973448 0.263067 0.199742
207 1 0.531438 0.141953 0.248063
313 2 0.55674 0.0287965 0.307738
251 1 0.674685 0.0934621 0.359146
323 2 0.638961 0.0942665 0.236481
257 1 0.67839 0.222386 0.214673
347 2 0.989177 0.0405102 0.290584
222 1 0.802775 0.168724 0.308532
123 1 0.83878 0.00332244 0.315651
178 1 0.944434 0.116967 0.377631
239 1 0.606706 0.255422 0.341103
14 1 0.628503 0.376667 0.249484
182 1 0.51778 0.397009 0.35093
135 1 0.788648 0.463353 0.274094
43 1 0.959765 0.456898 0.324497
100 1 0.940138 0.274835 0.314757
187 1 0.77572 0.312847 0.333533
151 1 0.564358 0.101235 0.546384
115 1 0.705642 0.039403 0.536668
88 1 0.698683 0.211833 0.449229
83 1 0.506147 0.125924 0.401727
18 1 0.807678 0.0915531 0.444581
184 1 0.941016 0.0225857 0.496742
272 1 0.982267 0.209326 0.521197
17 1 0.53582 0.285887 0.483235
89 1 0.688607 0.401677 0.419316
111 1 0.67624 0.339297 0.57916
78 1 0.537246 0.436013 0.50317
150 1 0.731678 0.486125 0.548355
76 1 0.857329 0.376092 0.562425
308 2 0.859855 0.496888 0.521162
87 1 0.855358 0.256491 0.450884
92 1 0.981817 0.370865 0.456532
91 1 0.840404 0.430228 0.410177
93 1 0.986593 0.496418 0.549244
217 1 0.607672 0.0764324 0.69284
249 1 0.689969 0.192205 0.606713
240 1 0.519155 0.230078 0.625655
69 1 0.51929 0.183149 0.770696
197 1 0.759805 0.0612628 0.682273
258 1 0.858356 0.165351 0.755049
109 1 0.905754 0.0570721 0.642226
186 1 0.997356 0.191015 0.678436
175 1 0.989551 0.0126441 0.764438
70 1 0.846603 0.19932 0.608129
65 1 0.60567 0.483566 0.651696
131 1 0.740603 0.266681 0.748817
226 1 0.602571 0.32647 0.745993
300 2 0.529634 0.360409 0.605054
63 1 0.525772 0.448535 0.79132
84 1 0.896767 0.328094 0.705568
108 1 0.757392 0.411732 0.705475
325 2 0.78936 0.304954 0.639869
67 1 0.883024 0.474809 0.673431
188 1 0.666114 0.0411747 0.986128
106 1 0.712069 0.00449331 0.836949
132 1 0.543969 0.0652842 0.8555
130 1 0.561606 0.17679 0.99109
293 2 0.668846 0.152231 0.922619
77 1 0.670259 0.151466 0.802561
304 2 0.977271 0.135057 0.801059
160 1 0.889151 0.00219175 0.906014
181 1 0.796086 0.126138 0.882188
225 1 0.897143 0.249655 0.873212
274 1 0.887719 0.158196 0.99714
234 1 0.560031 0.432679 0.934584
33 1 0.576402 0.28206 0.886878
264 1 0.680299 0.41561 0.844237
193 1 0.741406 0.275426 0.904317
133 1 0.736341 0.436782 0.987931
134 1 0.970998 0.418296 0.943259
163 1 0.845184 0.390035 0.840896
21 1 0.728739 0.693063 0.0805436
98 1 0.62251 0.555851 0.0361704
332 2 0.604829 0.733495 0.1261
269 1 0.519188 0.686045 0.039887
172 1 0.563163 0.612693 0.169464
124 1 0.75052 0.552922 0.145791
127 1 0.875634 0.618135 0.0641452
296 2 0.816975 0.665647 0.183276
68 1 0.914038 0.530294 0.193816
268 1 0.949298 0.679518 0.184001
289 2 0.591112 0.889321 0.199094
164 1 0.532374 0.991755 0.173718
104 1 0.641133 0.81841 0.0377853
122 1 0.673657 0.957509 0.11269
220 1 0.699894 0.815294 0.17966
211 1 0.51061 0.831959 0.114827
121 1 0.552778 0.9534 0.00903111
352 2 0.76421 0.855556 0.0755839
129 1 0.859082 0.790229 0.119926
319 2 0.911295 0.949108 0.0905551
179 1 0.81694 0.916925 0.189035
113 1 0.518266 0.618791 0.313603
177 1 0.658577 0.695468 0.389167
149 1 0.632643 0.510039 0.319493
342 2 0.523212 0.722727 0.381293
245 1 0.685253 0.649454 0.243417
118 1 0.83284 0.61474 0.296891
350 2 0.958852 0.583202 0.298641
103 1 0.948706 0.715041 0.354427
112 1 0.559298 0.750343 0.248407
235 1 0.646709 0.849041 0.357217
153 1 0.678515 0.974 0.268726
79 1 0.503614 0.910845 0.302981
145 1 0.969477 0.925634 0.225989
218 1 0.797946 0.751211 0.280073
336 2 0.924533 0.79942 0.243319
243 1 0.882375 0.852335 0.345225
307 2 0.76113 0.887072 0.301309
35 1 0.588655 0.713684 0.527583
10 1 0.624481 0.572971 0.481929
349 2 0.635042 0.626585 0.598923
237 1 0.75661 0.672848 0.545432
290 2 0.838592 0.67748 0.407484
105 1 0.910408 0.577374 0.432195
157 1 0.884792 0.740698 0.502705
166 1 0.752693 0.56453 0.412096
194 1 0.8869 0.608409 0.591255
146 1 0.640985 0.872207 0.510127
266 1 0.567905 0.985296 0.428673
205 1 0.740368 0.949951 0.411137
126 1 0.770596 0.793691 0.423916
306 2 0.755431 0.811066 0.573378
244 1 0.865827 0.890269 0.492392
128 1 0.73504 0.596709 0.67196
86 1 0.595884 0.592144 0.762957
346 2 0.682811 0.503731 0.763853
23 1 0.667608 0.743376 0.6549
273 1 0.552315 0.743706 0.760495
31 1 0.513407 0.616027 0.639284
295 2 0.794491 0.732509 0.700884
238 1 0.912581 0.633483 0.738813
297 2 0.584679 0.838948 0.651965
288 1 0.606311 0.922529 0.752215
51 1 0.721275 0.902593 0.644483
165 1 0.725902 0.842963 0.781677
233 1 0.555432 0.952327 0.602447
229 1 0.845473 0.940563 0.75151
335 2 0.940022 0.860899 0.726653
312 2 0.852591 0.934261 0.62563
189 1 0.865847 0.804562 0.638099
64 1 0.983169 0.919444 0.609808
206 1 0.862591 0.776272 0.787731
162 1 0.993876 0.754437 0.688659
28 1 0.669561 0.552625 0.897206
6 1 0.641318 0.685142 0.953907
282 1 0.524952 0.581494 0.904306
46 1 0.724958 0.679968 0.806412
168 1 0.954908 0.723758 0.992358
85 1 0.883701 0.658869 0.883675
161 1 0.966423 0.501057 0.812654
44 1 0.848663 0.514322 0.937903
334 2 0.751669 0.613555 0.981521
259 1 0.795775 0.532137 0.800607
324 2 0.508321 0.828286 0.98727
216 1 0.723474 0.893318 0.939406
1 1 0.590023 0.826165 0.887707
316 2 0.604378 0.961647 0.873581
357 2 0.828451 0.884428 0.873224
260 1 0.958337 0.860816 0.876487
59 1 0.777406 0.763241 0.949244
40 1 0.867896 0.882554 0.989711
ITEM: TIMESTEP
70000
ITEM: NUMBER OF ATOMS
360
ITEM: BOX BOUNDS pp pp pp
0.0000000000000000e+00 6.6943295008216896e+00
0.0000000000000000e+00 6.6943295008216896e+00
0.0000000000000000e+00 6.6943295008216896e+00
ITEM: ATOMS id type xs ys zs
74 1 0.116642 0.184261 0.0711009
202 1 0.247372 0.106028 0.0263332
145 1 0.144275 0.0440023 0.162454
190 1 0.265705 0.197304 0.147013
143 1 0.397224 0.127913 0.0809231
311 2 0.304794 0.339399 0.175612
68 1 0.117907 0.302291 0.174522
114 1 0.378668 0.296852 0.0686082
196 1 0.313781 0.0287961 0.165636
45 1 0.237705 0.28049 0.0191927
16 1 0.0748277 0.430649 0.102187
223 1 0.282147 0.431293 0.0866015
117 1 0.423091 0.422444 0.159265
256 1 0.0411348 0.13996 0.193214
125 1 0.110829 0.0349922 0.0157622
236 1 0.129671 0.177054 0.309944
347 2 0.0788187 0.0594536 0.300838
62 1 0.242754 0.0771467 0.284481
65 1 0.429486 0.486455 0.380849
156 1 0.302463 0.198879 0.336271
262 1 0.409103 0.114254 0.24274
83 1 0.45647 0.230908 0.374936
124 1 0.327665 0.42952 0.271098
317 2 0.224644 0.454561 0.344617
287 1 0.019544 0.28235 0.281978
127 1 0.487118 0.373379 0.298401
15 1 0.233931 0.316609 0.278356
334 2 0.0637686 0.396663 0.236352
302 2 0.364536 0.326766 0.364268
191 1 0.388258 0.27464 0.235218
92 1 0.120271 0.376614 0.356654
270 1 0.174961 0.458953 0.225864
310 2 0.199557 0.244332 0.393512
24 1 0.170432 0.189634 0.575174
184 1 0.0601814 0.0800381 0.464728
221 1 0.302758 0.111017 0.573002
94 1 0.21294 0.122681 0.442058
82 1 0.156002 0.0141842 0.55356
32 1 0.394922 0.0890185 0.418998
20 1 0.296788 0.243981 0.491561
113 1 0.296831 0.395586 0.455354
285 1 0.077495 0.239552 0.45119
350 2 0.0652926 0.460945 0.452931
255 1 0.150718 0.347842 0.522016
187 1 0.044759 0.453123 0.577882
173 1 0.189441 0.496428 0.46729
66 1 0.43904 0.348739 0.470684
299 2 0.439749 0.473351 0.520186
57 1 0.347014 0.430433 0.594615
239 1 0.47532 0.189871 0.5229
27 1 0.0331531 0.294143 0.597894
250 1 0.0603543 0.200796 0.713697
242 1 0.160491 0.0642777 0.708552
291 2 0.381128 0.0103249 0.686867
140 1 0.0290511 0.40224 0.739846
7 1 0.0296967 0.0867499 0.612737
212 1 0.436589 0.308489 0.616204
282 1 0.489456 0.335324 0.754993
41 1 0.33076 0.219672 0.680053
201 1 0.456086 0.116274 0.67038
301 2 0.434675 0.427641 0.679115
2 1 0.324384 0.362949 0.735967
246 1 0.184326 0.46103 0.641171
101 1 0.169919 0.319036 0.696378
231 1 0.329385 0.121033 0.779983
276 1 0.173721 0.429456 0.795134
54 1 0.187394 0.183095 0.796299
340 2 0.257757 0.322495 0.602151
277 1 0.186788 0.0638104 0.878378
22 1 0.16358 0.41553 0.96369
160 1 0.0639058 0.158763 0.92574
102 1 0.405051 0.328679 0.884274
42 1 0.320175 0.191982 0.929195
355 2 0.417949 0.11028 0.892205
252 1 0.33004 0.029706 0.923711
329 2 0.318955 0.374065 0.989457
341 2 0.182871 0.204219 0.924156
86 1 0.435697 0.477645 0.80292
132 1 0.45073 0.0214297 0.80405
227 1 0.0846892 0.296705 0.839384
214 1 0.245907 0.318486 0.864834
133 1 0.0248161 0.423585 0.889905
193 1 0.058447 0.302286 0.993872
60 1 0.292688 0.472881 0.895794
215 1 0.416777 0.454116 0.982311
50 1 0.466641 0.186533 0.800466
130 1 0.48044 0.22532 0.976867
358 2 0.0687811 0.496405 0.981694
219 1 0.0346916 0.0561425 0.807082
330 2 0.339797 0.249471 0.805004
278 1 0.0979216 0.733847 0.094211
47 1 0.289328 0.588912 0.0134236
49 1 0.147201 0.558614 0.0945983
284 1 0.420092 0.965137 0.0388859
38 1 0.294011 0.571756 0.173978
241 1 0.271297 0.732107 0.109371
9 1 0.450079 0.659446 0.0645083
322 2 0.381908 0.521186 0.0866936
298 2 0.0448111 0.62319 0.123027
353 2 0.232073 0.976957 0.065761
200 1 0.135663 0.892408 0.103854
345 2 0.198706 0.806364 0.0166784
343 2 0.39785 0.652817 0.178586
79 1 0.421289 0.803588 0.154959
248 1 0.316997 0.862986 0.0409117
348 2 0.0475385 0.817099 0.189761
26 1 0.475393 0.807843 0.00160795
105 1 0.119719 0.541036 0.34668
48 1 0.160808 0.709012 0.361793
96 1 0.0261918 0.723211 0.27117
314 2 0.0530448 0.689386 0.39323
159 1 0.408126 0.81558 0.315973
271 1 0.274836 0.5665 0.34207
139 1 0.433118 0.550183 0.239711
185 1 0.307794 0.708177 0.25761
11 1 0.351663 0.957039 0.320178
61 1 0.160385 0.634356 0.225752
170 1 0.0865729 0.929639 0.260715
209 1 0.253043 0.845313 0.360359
29 1 0.0419803 0.530986 0.214213
71 1 0.0646569 0.838734 0.381425
183 1 0.155875 0.800304 0.236259
176 1 0.413984 0.664002 0.376867
257 1 0.450533 0.957018 0.204572
178 1 0.155994 0.971767 0.393406
52 1 0.287539 0.877675 0.205638
95 1 0.164623 0.605167 0.576098
39 1 0.0971705 0.732189 0.500413
339 2 0.185716 0.62003 0.44478
265 1 0.0227928 0.599732 0.489696
31 1 0.409844 0.692614 0.549981
261 1 0.274506 0.704275 0.458756
78 1 0.333624 0.555493 0.489055
224 1 0.294307 0.963467 0.469397
152 1 0.0449632 0.910394 0.527582
142 1 0.201857 0.843452 0.501693
266 1 0.474108 0.934131 0.408864
25 1 0.370622 0.834351 0.456513
233 1 0.42945 0.995214 0.553018
235 1 0.495037 0.824133 0.57241
344 2 0.202571 0.739243 0.583791
12 1 0.316871 0.820324 0.593484
210 1 0.168488 0.582767 0.74696
37 1 0.109859 0.715908 0.671048
76 1 0.0415054 0.580735 0.655925
292 2 0.216497 0.712927 0.75896
288 1 0.395992 0.888868 0.716181
58 1 0.261043 0.965735 0.781929
294 2 0.275091 0.546311 0.607963
279 1 0.293859 0.669157 0.653323
232 1 0.416845 0.654189 0.757115
300 2 0.408796 0.773301 0.674618
53 1 0.423081 0.5605 0.629086
116 1 0.323842 0.771634 0.784013
138 1 0.202729 0.836122 0.704536
280 1 0.0646714 0.947685 0.689236
147 1 0.0324251 0.806916 0.760019
5 1 0.277201 0.957759 0.623113
356 2 0.0972378 0.846176 0.621152
253 1 0.297845 0.5076 0.726205
90 1 0.148569 0.549449 0.897516
81 1 0.100577 0.693063 0.830128
198 1 0.191809 0.681912 0.973549
324 2 0.487667 0.891407 0.801974
333 2 0.0906351 0.911076 0.963266
171 1 0.43018 0.584356 0.919275
99 1 0.29183 0.633422 0.846545
203 1 0.346542 0.733479 0.952894
8 1 0.204174 0.798585 0.86564
13 1 0.220062 0.930511 0.952602
168 1 0.0685794 0.79606 0.950887
4 1 0.10243 0.914416 0.840264
144 1 0.370227 0.88623 0.889933
1 1 0.460238 0.770264 0.85712
213 1 0.038053 0.62296 0.990239
134 1 0.0315862 0.556972 0.801718
199 1 0.629199 0.150025 0.0380566
167 1 0.527988 0.0675857 0.125145
225 1 0.710239 0.0319282 0.105813
195 1 0.833128 0.313296 0.14934
274 1 0.791457 0.158162 0.0957417
34 1 0.952096 0.16526 0.0375279
148 1 0.921275 0.389056 0.0119697
309 2 0.879486 0.067801 0.144993
208 1 0.670444 0.265963 0.129791
323 2 0.78145 0.288641 0.035361
158 1 0.512171 0.230608 0.140758
77 1 0.718017 0.397438 0.0625269
234 1 0.525716 0.364176 0.0428791
155 1 0.970558 0.285369 0.129029
63 1 0.586033 0.415102 0.178807
327 2 0.846613 0.448839 0.10735
247 1 0.866371 0.0189795 0.0323084
267 1 0.993155 0.00448209 0.11506
3 1 0.938025 0.426061 0.192913
305 2 0.614514 0.450593 0.0086715
136 1 0.521953 0.0684769 0.324732
75 1 0.690269 0.0561857 0.342044
100 1 0.877258 0.321721 0.301802
230 1 0.930297 0.0212815 0.246198
204 1 0.977346 0.425293 0.337588
222 1 0.974325 0.141859 0.347508
192 1 0.780897 0.0717065 0.233609
326 2 0.787308 0.389762 0.362268
244 1 0.834656 0.0712609 0.380214
72 1 0.896864 0.187802 0.227923
135 1 0.762214 0.214587 0.30705
141 1 0.647759 0.444889 0.319314
182 1 0.609429 0.289233 0.279759
164 1 0.626334 0.144443 0.229816
325 2 0.511153 0.201214 0.262537
14 1 0.737293 0.36544 0.241094
346 2 0.55163 0.327855 0.395298
313 2 0.697446 0.0610503 0.470914
111 1 0.637216 0.14275 0.564371
17 1 0.738759 0.175974 0.453836
205 1 0.566039 0.0404286 0.461762
109 1 0.937715 0.163007 0.491862
70 1 0.798595 0.0939482 0.556852
360 2 0.94683 0.375381 0.5445
88 1 0.954007 0.313206 0.438332
131 1 0.682425 0.416113 0.567833
30 1 0.591104 0.30329 0.564054
108 1 0.685041 0.325652 0.422286
91 1 0.750474 0.473852 0.448232
150 1 0.573653 0.44285 0.464674
87 1 0.814252 0.316389 0.499783
259 1 0.903811 0.473284 0.473615
283 1 0.928832 0.0170118 0.524055
89 1 0.599058 0.200314 0.418796
312 2 0.843116 0.224235 0.4109
217 1 0.590685 0.0740002 0.743188
115 1 0.728765 0.116656 0.686778
151 1 0.608459 0.227784 0.702851
293 2 0.685667 0.208671 0.795801
181 1 0.805416 0.208821 0.781843
174 1 0.875807 0.0902785 0.705868
175 1 0.899024 0.226538 0.625529
226 1 0.546784 0.439664 0.625555
240 1 0.590034 0.477665 0.768315
342 2 0.637062 0.363178 0.687689
295 2 0.81464 0.344263 0.747048
186 1 0.739051 0.294577 0.646026
258 1 0.736884 0.441082 0.727359
163 1 0.892153 0.395938 0.650308
189 1 0.944418 0.284415 0.75698
335 2 0.795095 0.00326972 0.63051
197 1 0.6022 0.151539 0.888653
316 2 0.563001 0.0311971 0.857935
228 1 0.696249 0.465892 0.894808
36 1 0.505664 0.076445 0.976703
33 1 0.898053 0.418118 0.812685
188 1 0.773633 0.193707 0.941848
260 1 0.735702 0.0754084 0.840545
19 1 0.898009 0.0931588 0.884004
169 1 0.801417 0.35251 0.898495
331 2 0.980893 0.176642 0.81711
304 2 0.545722 0.271889 0.867426
254 1 0.647666 0.300522 0.963128
229 1 0.931195 0.253731 0.915686
249 1 0.54185 0.413607 0.903347
121 1 0.654493 0.00591713 0.949114
69 1 0.659615 0.341449 0.812688
354 2 0.76099 0.0751641 0.985423
119 1 0.665907 0.558295 0.0749908
59 1 0.803064 0.624833 0.0998025
107 1 0.576267 0.74956 0.129799
122 1 0.83509 0.78853 0.0986897
263 1 0.517988 0.517977 0.0822758
281 1 0.9452 0.538168 0.0796307
56 1 0.932354 0.68489 0.144193
359 2 0.618261 0.807683 0.0214247
179 1 0.71302 0.740564 0.0465646
21 1 0.569772 0.913832 0.0959227
153 1 0.68884 0.844514 0.175207
320 2 0.690908 0.650901 0.16339
103 1 0.972925 0.846237 0.0791628
337 2 0.989521 0.732833 0.0329656
251 1 0.834427 0.935551 0.149691
211 1 0.736175 0.889699 0.0342371
336 2 0.873307 0.882016 0.0239465
118 1 0.711787 0.589278 0.34328
220 1 0.668846 0.715047 0.260967
351 2 0.935936 0.859743 0.372639
172 1 0.60329 0.568946 0.209375
272 1 0.833703 0.927457 0.331556
112 1 0.548567 0.858968 0.277095
194 1 0.97021 0.59186 0.340866
245 1 0.809608 0.66403 0.246292
290 2 0.9059 0.705275 0.320486
243 1 0.807481 0.776753 0.371009
319 2 0.742569 0.948765 0.247038
289 2 0.791212 0.793033 0.234293
218 1 0.696839 0.8762 0.341508
207 1 0.616491 0.99602 0.224129
303 2 0.594948 0.950026 0.359503
55 1 0.934629 0.842771 0.238867
149 1 0.572286 0.630124 0.366526
308 2 0.908245 0.565764 0.204943
286 1 0.503312 0.688343 0.250145
18 1 0.98225 0.977559 0.384798
296 2 0.537997 0.510365 0.2928
10 1 0.841943 0.504494 0.32281
98 1 0.755498 0.506322 0.199808
35 1 0.671465 0.597539 0.505229
123 1 0.791262 0.945094 0.487984
177 1 0.665987 0.739284 0.418384
315 2 0.558773 0.70457 0.522524
273 1 0.642901 0.782482 0.589828
162 1 0.884484 0.840649 0.522273
237 1 0.762062 0.71321 0.541596
67 1 0.909782 0.653251 0.582733
166 1 0.851031 0.621113 0.436414
110 1 0.949661 0.735937 0.44214
128 1 0.521752 0.584045 0.508798
321 2 0.538303 0.937457 0.534208
126 1 0.621125 0.887593 0.465894
307 2 0.75056 0.816528 0.473456
73 1 0.510958 0.769553 0.415474
146 1 0.679112 0.984402 0.578027
84 1 0.800314 0.524649 0.58824
44 1 0.64027 0.57263 0.64941
120 1 0.529388 0.68394 0.647542
306 2 0.642039 0.710558 0.6923
64 1 0.918479 0.921002 0.645483
157 1 0.764273 0.947743 0.740803
161 1 0.772288 0.676397 0.688816
238 1 0.961501 0.677923 0.726256
264 1 0.875835 0.548064 0.71945
318 2 0.629238 0.872325 0.674694
154 1 0.534602 0.798444 0.727465
23 1 0.527807 0.959877 0.668277
46 1 0.69488 0.8052 0.762166
93 1 0.984804 0.777967 0.618553
206 1 0.862955 0.798096 0.743502
349 2 0.857871 0.755821 0.63021
269 1 0.704177 0.578325 0.788269
106 1 0.624534 0.923784 0.797719
80 1 0.769819 0.848121 0.619436
338 2 0.940538 0.513346 0.613624
297 2 0.518984 0.568698 0.707738
97 1 0.57444 0.658138 0.790925
268 1 0.73261 0.62498 0.941762
28 1 0.594946 0.560687 0.929625
40 1 0.807756 0.947002 0.907811
104 1 0.581089 0.696112 0.98239
357 2 0.697909 0.886992 0.908699
85 1 0.921492 0.811668 0.904441
180 1 0.92744 0.551791 0.911435
328 2 0.976096 0.714474 0.850925
6 1 0.840918 0.66318 0.823936
165 1 0.768584 0.787221 0.897249
129 1 0.888436 0.680172 0.97772
216 1 0.612145 0.804794 0.881973
137 1 0.523565 0.923157 0.918493
352 2 0.68383 0.703102 0.853695
275 1 0.80809 0.504906 0.991893
332 2 0.807351 0.521688 0.851486
43 1 0.978254 0.948364 0.95616
51 1 0.922601 0.946714 0.803362
ITEM: TIMESTEP
140000
ITEM: NUMBER OF ATOMS
360
ITEM: BOX BOUNDS pp pp pp
0.0000000000000000e+00 6.6943295008216896e+00
0.0000000000000000e+00 6.6943295008216896e+00
0.0000000000000000e+00 6.6943295008216896e+00
ITEM: ATOMS id type xs ys zs
34 1 0.0132639 0.161182 0.139467
45 1 0.179703 0.168395 0.11908
267 1 0.123586 0.0299097 0.148814
329 2 0.403639 0.446294 0.138565
160 1 0.0721748 0.246524 0.0188355
202 1 0.317666 0.0947624 0.108051
359 2 0.410346 0.024309 0.00388458
277 1 0.465083 0.227247 0.150494
353 2 0.204177 0.0853879 0.0220846
29 1 0.077592 0.308772 0.180503
22 1 0.0960686 0.428297 0.0703497
317 2 0.176054 0.392297 0.165189
74 1 0.0739193 0.09563 0.0151901
68 1 0.285303 0.421302 0.0908035
124 1 0.453801 0.432865 0.0337915
36 1 0.351075 0.27563 0.0723538
270 1 0.236645 0.285469 0.202163
50 1 0.207216 0.301893 0.0438424
143 1 0.492373 0.0715559 0.0997719
16 1 0.118377 0.214212 0.27853
61 1 0.104647 0.471285 0.243413
351 2 0.154035 0.0659428 0.300257
55 1 0.038199 0.0676123 0.260167
311 2 0.28278 0.402535 0.253308
11 1 0.338086 0.0893776 0.372826
94 1 0.263417 0.14442 0.255826
190 1 0.430656 0.194754 0.302836
236 1 0.288113 0.262339 0.351401
62 1 0.40311 0.0701663 0.231993
222 1 0.375959 0.335026 0.236453
215 1 0.401376 0.48516 0.262436
127 1 0.319355 0.431098 0.38874
92 1 0.172379 0.362808 0.32575
299 2 0.452258 0.460987 0.369297
105 1 0.00866287 0.492978 0.364606
334 2 0.352854 0.213091 0.199278
287 1 0.0243082 0.173764 0.39753
285 1 0.19536 0.145941 0.398831
321 2 0.450727 0.235908 0.53091
20 1 0.133862 0.230989 0.531774
347 2 0.0989573 0.106601 0.47015
350 2 0.0394482 0.501885 0.4914
113 1 0.33893 0.204333 0.479737
235 1 0.386292 0.0802945 0.559604
184 1 0.0596847 0.0012892 0.421428
66 1 0.438353 0.479223 0.495412
310 2 0.275239 0.0843018 0.489335
65 1 0.23094 0.334265 0.490791
265 1 0.0800449 0.365005 0.450987
57 1 0.367147 0.336094 0.564915
95 1 0.155762 0.459274 0.554414
32 1 0.49269 0.144122 0.453154
24 1 0.183221 0.0244636 0.544568
324 2 0.421006 0.0235919 0.4579
271 1 0.173463 0.494403 0.410969
27 1 0.0639949 0.093011 0.593943
138 1 0.258244 0.152281 0.601861
15 1 0.440446 0.313645 0.422937
340 2 0.155633 0.262431 0.410697
219 1 0.197527 0.0614166 0.700151
41 1 0.162668 0.206939 0.736594
7 1 0.0199118 0.271454 0.76541
210 1 0.089106 0.494949 0.693546
360 2 0.0470462 0.20183 0.644407
233 1 0.40064 0.244391 0.683343
201 1 0.351748 0.104527 0.707218
291 2 0.295598 0.232615 0.760089
246 1 0.153359 0.373577 0.754314
187 1 0.0704117 0.341106 0.628376
239 1 0.444852 0.48253 0.681502
173 1 0.243042 0.298859 0.648023
53 1 0.298711 0.453494 0.645557
212 1 0.331463 0.364354 0.770928
19 1 0.0539907 0.102316 0.744778
54 1 0.087861 0.184205 0.875851
247 1 0.133223 0.0422847 0.872471
13 1 0.253076 0.137683 0.835341
355 2 0.431376 0.299888 0.958915
151 1 0.343 0.383817 0.922886
42 1 0.283392 0.174354 0.973605
231 1 0.214542 0.300616 0.873936
288 1 0.40152 0.0916355 0.861348
130 1 0.388784 0.243704 0.854794
276 1 0.0675732 0.366795 0.895937
8 1 0.273283 0.0215747 0.92936
330 2 0.462639 0.441114 0.912075
47 1 0.216183 0.439667 0.95993
137 1 0.439571 0.175584 0.999554
30 1 0.484689 0.359628 0.822602
49 1 0.152981 0.69648 0.117215
198 1 0.182669 0.539361 0.142376
337 2 0.282149 0.768068 0.142141
117 1 0.315739 0.957276 0.0530463
96 1 0.0412157 0.585776 0.130641
52 1 0.479862 0.910529 0.0704349
99 1 0.352038 0.813518 0.0359686
298 2 0.0459186 0.674286 0.0324111
191 1 0.301771 0.673958 0.0578273
213 1 0.402871 0.692444 0.172914
141 1 0.328135 0.561907 0.13853
125 1 0.1562 0.951543 0.0127145
18 1 0.212975 0.868087 0.129605
348 2 0.0913383 0.906316 0.160245
183 1 0.067388 0.826188 0.0534569
203 1 0.458001 0.675278 0.0248584
343 2 0.496998 0.76797 0.125723
302 2 0.254724 0.551569 0.0330801
79 1 0.36992 0.872911 0.189361
223 1 0.124381 0.571815 0.00292579
48 1 0.0912309 0.641695 0.270667
241 1 0.259075 0.693334 0.244534
152 1 0.131467 0.780773 0.370176
139 1 0.254942 0.522902 0.268042
38 1 0.382973 0.744754 0.337693
200 1 0.0787628 0.794556 0.227504
320 2 0.368844 0.606599 0.253705
176 1 0.371808 0.584413 0.377088
145 1 0.112062 0.935891 0.276772
224 1 0.211639 0.987896 0.387301
25 1 0.242906 0.841613 0.292094
286 1 0.375603 0.927954 0.354444
178 1 0.254332 0.987897 0.21599
170 1 0.221055 0.65165 0.394935
39 1 0.0757578 0.613504 0.422818
339 2 0.171047 0.586594 0.504027
93 1 0.141218 0.709836 0.535716
142 1 0.0101568 0.802468 0.56451
159 1 0.301172 0.948728 0.50135
78 1 0.287975 0.538403 0.510552
149 1 0.393004 0.665295 0.501056
266 1 0.43832 0.855343 0.480648
314 2 0.0229046 0.724393 0.456898
261 1 0.267384 0.79857 0.447413
5 1 0.136911 0.875606 0.497437
206 1 0.0567666 0.588409 0.582248
116 1 0.353333 0.78876 0.590175
279 1 0.2481 0.507019 0.767968
81 1 0.114792 0.644679 0.774949
294 2 0.0782267 0.700934 0.651365
209 1 0.203686 0.594997 0.627841
242 1 0.282847 0.945214 0.64817
12 1 0.317212 0.647145 0.773966
120 1 0.457923 0.722554 0.695339
301 2 0.460927 0.593957 0.72401
31 1 0.361509 0.603288 0.63529
344 2 0.298253 0.707509 0.667451
144 1 0.336837 0.976071 0.79587
238 1 0.0764316 0.794944 0.745698
280 1 0.104791 0.928898 0.660532
4 1 0.204435 0.808388 0.635887
106 1 0.436739 0.937094 0.614341
232 1 0.314757 0.812029 0.740991
132 1 0.193069 0.909453 0.781899
97 1 0.454549 0.881045 0.756789
253 1 0.249874 0.586075 0.906763
148 1 0.0850483 0.71045 0.920772
345 2 0.203832 0.680105 0.975646
214 1 0.119056 0.513631 0.857802
315 2 0.414488 0.77809 0.827386
282 1 0.475631 0.652224 0.834613
102 1 0.379258 0.560642 0.976995
86 1 0.341431 0.71768 0.917426
58 1 0.479094 0.799204 0.937783
60 1 0.20764 0.755024 0.836557
341 2 0.0382051 0.985265 0.954282
147 1 0.0783941 0.864621 0.907347
333 2 0.199613 0.889203 0.903986
37 1 0.320778 0.859398 0.884457
1 1 0.445847 0.942477 0.909144
2 1 0.39449 0.513801 0.825516
248 1 0.205181 0.796999 0.996549
168 1 0.0358379 0.948497 0.801976
77 1 0.599453 0.174023 0.0470174
304 2 0.704579 0.238937 0.0817329
325 2 0.696511 0.370295 0.193893
182 1 0.615862 0.281895 0.176038