ITEM: TIMESTEP
0
ITEM: NUMBER OF ATOMS
360
ITEM: BOX BOUNDS pp pp pp
0.0000000000000000e+00 6.6943295008216896e+00
0.0000000000000000e+00 6.6943295008216896e+00
0.0000000000000000e+00 6.6943295008216896e+00
ITEM: ATOMS id type xs ys zs
174 1 0.122622 0.1749 0.109323
235 1 0.182989 0.0263521 0.0146209
315 2 0.0394247 0.0857933 0.100187
325 2 0.212792 0.117156 0.185631
255 1 0.241394 0.238043 0.173771
136 1 0.249076 0.00457893 0.148255
41 1 0.112629 0.0429256 0.196085
131 1 0.251103 0.150655 0.0363359
85 1 0.416835 0.0471828 0.097471
196 1 0.392032 0.199595 0.0447945
132 1 0.491243 0.186185 0.186736
218 1 0.019438 0.430717 0.177223
104 1 0.0149318 0.272074 0.174457
352 2 0.0988415 0.36241 0.0734269
156 1 0.185139 0.284268 0.0303751
191 1 0.158321 0.354918 0.182422
182 1 0.38247 0.354619 0.100631
87 1 0.263786 0.426282 0.0937731
12 1 0.126544 0.188006 0.276208
193 1 0.225459 0.0588587 0.306154
158 1 0.00621304 0.105931 0.317106
252 1 0.368408 0.0730123 0.379502
14 1 0.428611 0.211377 0.341287
234 1 0.272641 0.204201 0.326839
332 2 0.345451 0.0138245 0.263076
223 1 0.482835 0.051318 0.266084
275 1 0.343103 0.134363 0.205685
157 1 0.16874 0.320273 0.334818
224 1 0.0333439 0.35266 0.299678
296 2 0.113496 0.453276 0.2895
184 1 0.234024 0.456861 0.34113
220 1 0.397673 0.494619 0.392107
343 2 0.281011 0.365226 0.213298
8 1 0.397893 0.317845 0.245063
162 1 0.317498 0.345808 0.377438
24 1 0.469751 0.46621 0.216864
164 1 0.0197943 0.100474 0.467922
208 1 0.148724 0.0669904 0.557355
221 1 0.239114 0.0121501 0.448516
121 1 0.165434 0.145756 0.427572
175 1 0.107719 0.212468 0.575113
81 1 0.0578793 0.2453 0.406225
340 2 0.442874 0.0629015 0.476412
106 1 0.491071 0.183819 0.479829
319 2 0.27675 0.0594521 0.561366
247 1 0.299979 0.166722 0.502566
355 2 0.18088 0.410301 0.440902
68 1 0.221148 0.294167 0.492909
339 2 0.0036913 0.302293 0.575601
299 2 0.0206007 0.495989 0.527959
143 1 0.117199 0.372245 0.583918
4 1 0.000638354 0.375768 0.459744
334 2 0.376243 0.258333 0.455102
160 1 0.406071 0.312295 0.596265
276 1 0.462527 0.350567 0.45337
314 2 0.478467 0.429882 0.579362
198 1 0.309439 0.42006 0.507717
237 1 0.161548 0.0325767 0.699637
248 1 0.0350514 0.104972 0.749074
329 2 0.136465 0.166451 0.68977
356 2 0.0290299 0.0890861 0.62444
254 1 0.257155 0.144083 0.654273
312 2 0.419456 0.208101 0.669062
6 1 0.388463 0.103757 0.750078
227 1 0.311456 0.238938 0.755655
119 1 0.404056 0.0658089 0.606263
205 1 0.20383 0.452519 0.699541
130 1 0.149534 0.287138 0.740746
47 1 0.0460036 0.390386 0.732066
345 2 0.0312712 0.253264 0.694691
338 2 0.243705 0.352507 0.773784
43 1 0.358963 0.416325 0.701975
46 1 0.473131 0.271224 0.764811
266 1 0.257505 0.325625 0.627885
34 1 0.107585 0.0200232 0.848501
260 1 0.128307 0.165553 0.930784
350 2 0.213956 0.063368 0.901649
306 2 0.0294685 0.105343 0.884364
70 1 0.193265 0.137138 0.804074
304 2 0.431427 0.106736 0.971482
170 1 0.32484 0.137008 0.899599
83 1 0.343971 0.0217644 0.97846
199 1 0.458635 0.0312858 0.860518
129 1 0.280703 0.0129777 0.801943
335 2 0.129668 0.402372 0.833613
137 1 0.0544616 0.288763 0.856105
277 1 0.159993 0.420232 0.957781
55 1 0.21419 0.284342 0.874176
30 1 0.0199936 0.431032 0.909871
288 1 0.388603 0.283446 0.928499
232 1 0.434692 0.454621 0.825191
52 1 0.383437 0.430584 0.960541
82 1 0.271558 0.452635 0.840317
331 2 0.366051 0.348234 0.816797
294 2 0.270826 0.370366 0.974626
49 1 0.146174 0.649749 0.0347674
113 1 0.15999 0.514318 0.181678
38 1 0.042431 0.603117 0.145774
11 1 0.0642427 0.500527 0.0368035
330 2 0.156807 0.639145 0.186677
313 2 0.0186247 0.636841 0.033251
203 1 0.432639 0.631014 0.185807
302 2 0.287791 0.745339 0.0545125
29 1 0.271673 0.631048 0.148565
48 1 0.376494 0.528014 0.0869221
31 1 0.358004 0.651223 0.00726218
181 1 0.061045 0.76566 0.0761345
272 1 0.201834 0.757725 0.162858
88 1 0.154569 0.896216 0.101053
23 1 0.0216436 0.952376 0.117747
118 1 0.442818 0.918554 0.0204965
117 1 0.415141 0.762252 0.111235
231 1 0.398887 0.92315 0.177653
95 1 0.29527 0.877442 0.0524361
291 2 0.253734 0.874094 0.178954
202 1 0.213295 0.599038 0.306396
20 1 0.092368 0.697122 0.280228
301 2 0.238085 0.713411 0.271431
28 1 0.00641647 0.569773 0.292145
127 1 0.369438 0.632567 0.323658
25 1 0.326136 0.507375 0.232331
7 1 0.0836597 0.977668 0.364182
323 2 0.0092871 0.962608 0.2517
124 1 0.0760131 0.8327 0.226874
10 1 0.203167 0.831263 0.299294
346 2 0.146985 0.9435 0.261456
56 1 0.352749 0.782895 0.233825
63 1 0.310259 0.927841 0.347962
153 1 0.390122 0.788233 0.385374
94 1 0.464172 0.945561 0.381486
244 1 0.036196 0.617266 0.486883
192 1 0.240936 0.734495 0.410098
309 2 0.246179 0.652611 0.537424
290 2 0.13794 0.641829 0.416013
16 1 0.178308 0.507916 0.530748
177 1 0.0919247 0.500427 0.40677
125 1 0.272101 0.57076 0.44126
152 1 0.362575 0.691946 0.490271
120 1 0.470272 0.527947 0.511931
333 2 0.449253 0.648095 0.573883
282 1 0.341181 0.565983 0.587059
336 2 0.213559 0.882848 0.417057
200 1 0.158822 0.760879 0.55127
225 1 0.145266 0.915755 0.549119
93 1 0.00654784 0.773034 0.514774
36 1 0.0993387 0.811764 0.414345
71 1 0.368242 0.945187 0.500403
326 2 0.424172 0.808774 0.511417
75 1 0.28454 0.834667 0.50559
242 1 0.198479 0.597657 0.654662
186 1 0.0453423 0.673956 0.635259
353 2 0.0968579 0.627496 0.78052
58 1 0.0696121 0.514894 0.649143
101 1 0.180699 0.733291 0.738139
123 1 0.0176623 0.720311 0.763206
269 1 0.423064 0.682128 0.708782
15 1 0.47432 0.53183 0.681015
3 1 0.338881 0.563294 0.740719
308 2 0.309227 0.688599 0.756746
217 1 0.308187 0.726202 0.627315
300 2 0.035016 0.955399 0.763716
33 1 0.0729063 0.818454 0.661346
138 1 0.171056 0.883615 0.737068
342 2 0.237712 0.837579 0.62238
267 1 0.036661 0.963075 0.631942
98 1 0.409154 0.851546 0.627409
111 1 0.403537 0.949755 0.735618
35 1 0.315297 0.820203 0.74053
142 1 0.280864 0.956253 0.635295
259 1 0.474104 0.814773 0.782754
298 2 0.228384 0.679465 0.954116
21 1 0.123368 0.708107 0.886815
261 1 0.243071 0.614027 0.837392
354 2 0.147064 0.550076 0.929946
280 1 0.123195 0.518178 0.809988
187 1 0.0110106 0.592923 0.892236
310 2 0.342499 0.561076 0.893687
148 1 0.395502 0.66054 0.862188
233 1 0.257286 0.537306 0.995555
257 1 0.455671 0.555652 0.946378
115 1 0.208078 0.905888 0.889369
204 1 0.0679208 0.857198 0.839854
188 1 0.0606103 0.90476 0.974651
57 1 0.18624 0.792169 0.991124
39 1 0.452585 0.775842 0.956431
110 1 0.377387 0.901022 0.870117
80 1 0.285812 0.76253 0.874082
150 1 0.641503 0.227533 0.100341
344 2 0.514114 0.152823 0.0468021
197 1 0.616496 0.0974629 0.182288
253 1 0.695825 0.0231073 0.0275145
61 1 0.554245 0.0390331 0.000854529
230 1 0.866323 0.231605 0.171272
171 1 0.985864 0.199126 0.0470143
262 1 0.764674 0.120219 0.136999
285 1 0.949792 0.106618 0.172504
26 1 0.853793 0.123437 0.00114476
161 1 0.644146 0.379704 0.0593368
246 1 0.735955 0.332119 0.188908
53 1 0.540713 0.344758 0.161293
140 1 0.513826 0.286094 0.0196653
278 1 0.867705 0.403624 0.137904
141 1 0.980076 0.367029 0.0388221
284 1 0.75537 0.270913 0.0139283
228 1 0.596809 0.134709 0.343391
360 2 0.729268 0.0541151 0.286954
209 1 0.744927 0.199047 0.271889
236 1 0.904815 0.00904763 0.389387
134 1 0.853246 0.0923685 0.283881
222 1 0.925407 0.246275 0.302847
226 1 0.600356 0.264602 0.267615
69 1 0.619706 0.475399 0.219591
219 1 0.705713 0.360995 0.335867
19 1 0.559256 0.396215 0.341598
303 2 0.652737 0.490866 0.349861
103 1 0.901669 0.439862 0.28033
305 2 0.83681 0.338615 0.273216
215 1 0.762632 0.497582 0.277925
27 1 0.634546 0.148866 0.520788
99 1 0.732969 0.0584422 0.410451
84 1 0.745149 0.222295 0.42613
135 1 0.588972 0.0206131 0.436422
337 2 0.555551 0.0704704 0.596601
17 1 0.787399 0.125212 0.557938
159 1 0.877722 0.162852 0.422942
91 1 0.915123 0.0455037 0.570151
201 1 0.595963 0.448817 0.467147
265 1 0.721925 0.348619 0.510291
44 1 0.606703 0.279936 0.43091
90 1 0.581074 0.363164 0.593704
317 2 0.882478 0.413733 0.513764
190 1 0.861541 0.277454 0.538877
62 1 0.773543 0.489006 0.448057
78 1 0.793255 0.45968 0.595458
286 1 0.856173 0.336956 0.401597
274 1 0.682762 0.119699 0.672513
293 2 0.735842 0.221056 0.739412
5 1 0.535022 0.0834388 0.717055
92 1 0.557097 0.208816 0.642803
206 1 0.629285 0.187021 0.789138
128 1 0.839188 0.136868 0.699755
107 1 0.913978 0.0107186 0.726762
165 1 0.94005 0.226594 0.778912
166 1 0.786222 0.00358755 0.668117
270 1 0.958457 0.190509 0.613769
67 1 0.634861 0.342212 0.746364
341 2 0.524816 0.410297 0.698088
351 2 0.713513 0.367669 0.649086
149 1 0.713478 0.250536 0.61518
178 1 0.638461 0.483454 0.67022
167 1 0.771038 0.43738 0.770569
144 1 0.833923 0.31633 0.688561
210 1 0.924079 0.450254 0.691969
249 1 0.665621 0.161419 0.961906
109 1 0.608275 0.0281781 0.852531
145 1 0.50174 0.179774 0.886934
347 2 0.791714 0.154749 0.890109
64 1 0.897379 0.095108 0.853569
240 1 0.758334 0.0679504 0.805313
185 1 0.976499 0.0445836 0.993366
348 2 0.511945 0.31234 0.88812
22 1 0.548851 0.422588 0.956294
102 1 0.632952 0.295694 0.898515
108 1 0.708132 0.44256 0.922884
212 1 0.593083 0.465134 0.812807
9 1 0.89607 0.257102 0.926283
2 1 0.837732 0.40431 0.98616
76 1 0.770632 0.290874 0.844958
357 2 0.994461 0.48052 0.800316
13 1 0.904416 0.379722 0.826017
155 1 0.650448 0.605464 0.122115
287 1 0.7332 0.71895 0.0610044
241 1 0.50675 0.657975 0.0425532
283 1 0.531643 0.506874 0.0894329
126 1 0.567652 0.732332 0.17435
328 2 0.639789 0.674252 0.00900353
97 1 0.904916 0.691161 0.067644
258 1 0.891199 0.563626 0.165323
297 2 0.75618 0.595416 0.195179
256 1 0.765445 0.50134 0.0692267
245 1 0.593169 0.791496 0.0284428
292 2 0.596201 0.91603 0.02991
358 2 0.50742 0.845338 0.129837
172 1 0.663017 0.863735 0.141965
42 1 0.549291 0.972786 0.145997
133 1 0.730687 0.983301 0.193236
321 2 0.979698 0.835877 0.137509
183 1 0.852669 0.982402 0.109663
54 1 0.840129 0.829319 0.1461
264 1 0.898113 0.886988 0.00111033
189 1 0.535905 0.557544 0.356816
322 2 0.620586 0.705005 0.386737
32 1 0.656088 0.61333 0.293965
168 1 0.717114 0.73832 0.222958
349 2 0.544288 0.58817 0.234442
251 1 0.507654 0.705475 0.322935
72 1 0.834231 0.631668 0.287128
213 1 0.94709 0.729326 0.208837
18 1 0.948 0.692159 0.377678
51 1 0.604354 0.958485 0.295564
216 1 0.657955 0.821842 0.336152
239 1 0.50479 0.851772 0.264481
195 1 0.842171 0.799287 0.298755
359 2 0.752344 0.857859 0.235214
116 1 0.978498 0.851025 0.339814
179 1 0.763839 0.935547 0.34359
96 1 0.889035 0.94296 0.24796
271 1 0.588902 0.612023 0.588052
279 1 0.64217 0.734616 0.521583
169 1 0.663546 0.598096 0.442576
238 1 0.74185 0.631769 0.574288
307 2 0.676677 0.521444 0.551265
154 1 0.509135 0.681261 0.467415
66 1 0.922338 0.518966 0.414655
147 1 0.915064 0.570753 0.577502
207 1 0.868087 0.68975 0.504728
289 2 0.811956 0.604103 0.407485
37 1 0.759381 0.715155 0.405265
65 1 0.545979 0.910466 0.540622
59 1 0.695255 0.878572 0.473497
74 1 0.533261 0.82846 0.423902
50 1 0.653152 0.990659 0.58195
180 1 0.800152 0.968714 0.510682
146 1 0.775739 0.783926 0.578179
122 1 0.863309 0.844254 0.445039
243 1 0.890244 0.868194 0.58906
173 1 0.988691 0.934847 0.488283
194 1 0.572836 0.644488 0.737015
316 2 0.656402 0.72027 0.651461
45 1 0.523905 0.74906 0.612787
176 1 0.750657 0.717619 0.730263
86 1 0.886861 0.711137 0.661434
263 1 0.955436 0.58165 0.745591
105 1 0.797664 0.569071 0.697371
89 1 0.628528 0.783378 0.784241
100 1 0.624119 0.949506 0.727937
273 1 0.642417 0.83937 0.63427
320 2 0.53116 0.872849 0.68659
295 2 0.508078 0.943043 0.785533
151 1 0.786549 0.865082 0.714031
163 1 0.930518 0.847373 0.741419
324 2 0.756717 0.905895 0.607611
214 1 0.705339 0.600769 0.82661
229 1 0.563087 0.679103 0.883723
327 2 0.50204 0.582564 0.818951
268 1 0.62217 0.560342 0.965059
40 1 0.712102 0.74737 0.904422
211 1 0.779368 0.608075 0.954633
281 1 0.878494 0.693054 0.825477
73 1 0.861785 0.528161 0.850699
77 1 0.913627 0.545304 0.993678
139 1 0.538653 0.899199 0.90274
250 1 0.708057 0.914264 0.847509
112 1 0.737149 0.872417 0.988322
60 1 0.960614 0.958616 0.86921
1 1 0.839363 0.834335 0.868555
79 1 0.988497 0.757204 0.947422
114 1 0.817971 0.994218 0.936822
318 2 0.838392 0.946615 0.813773
311 2 0.831655 0.773432 0.983669
ITEM: TIMESTEP
50000
ITEM: NUMBER OF ATOMS
360
ITEM: BOX BOUNDS pp pp pp
0.0000000000000000e+00 6.6943295008216896e+00
0.0000000000000000e+00 6.6943295008216896e+00
0.0000000000000000e+00 6.6943295008216896e+00
ITEM: ATOMS id type xs ys zs
136 1 0.196654 0.12304 0.134276
285 1 0.0385701 0.125144 0.104807
358 2 0.135155 0.0634529 0.0337019
325 2 0.213538 0.249747 0.179725
170 1 0.168595 0.234184 0.0246024
22 1 0.435866 0.313167 0.026003
42 1 0.348581 0.0827728 0.138928
348 2 0.45367 0.0125698 0.172411
313 2 0.0399088 0.297042 0.0121894
70 1 0.327191 0.23061 0.0984359
55 1 0.263142 0.378715 0.188265
150 1 0.472932 0.423337 0.125369
191 1 0.125915 0.331395 0.138821
6 1 0.270442 0.359996 0.0391909
310 2 0.2054 0.459738 0.0903366
231 1 0.121361 -0.000240785 0.164881
304 2 0.366352 0.344209 0.133011
21 1 0.095526 0.488988 0.159556
140 1 0.496541 0.186574 0.0640375
196 1 0.459568 0.291033 0.188515
301 2 0.263071 0.0138046 0.197237
116 1 0.190009 0.123753 0.297114
157 1 0.40212 0.419512 0.269305
234 1 0.22796 0.286684 0.301012
284 1 0.476751 0.12952 0.235022
290 2 0.359772 0.304335 0.321757
94 1 0.451003 0.123587 0.393491
252 1 0.320377 0.0501872 0.301495
132 1 0.336571 0.187147 0.252494
41 1 0.089463 0.213405 0.235051
262 1 0.027601 0.0762709 0.275277
355 2 0.285825 0.437427 0.326934
158 1 0.0894917 0.295282 0.373499
12 1 0.162639 0.430694 0.310862
339 2 0.0371449 0.490422 0.283171
87 1 0.492004 0.265511 0.337635
222 1 0.0117265 0.356959 0.259478
84 1 0.12454 0.0963915 0.554953
135 1 0.471966 0.250381 0.499662
193 1 0.275556 0.0569814 0.443894
236 1 0.168392 0.198914 0.45727
300 2 0.313411 0.400222 0.5998
338 2 0.332603 0.298612 0.514657
160 1 0.332238 0.175158 0.545846
198 1 0.37739 0.383218 0.430959
286 1 0.0543934 0.435921 0.44086
360 2 0.151971 0.0707548 0.40738
190 1 0.106149 0.322076 0.545125
121 1 0.217528 0.364145 0.43379
347 2 0.0657184 0.200702 0.543605
134 1 0.0234456 0.124325 0.424411
14 1 0.432116 0.411419 0.582287
221 1 0.311925 0.212262 0.408225
204 1 0.172693 0.172842 0.683039
175 1 0.166866 0.449421 0.601949
267 1 0.265672 0.0573587 0.621282
128 1 0.027505 0.0988801 0.661139
210 1 0.0584236 0.203346 0.778973
47 1 0.348236 0.155181 0.714295
159 1 0.241995 0.28238 0.600961
139 1 0.461546 0.0600896 0.764131
329 2 0.415331 0.257653 0.776537
271 1 0.403446 0.00716399 0.608471
144 1 0.0639982 0.439701 0.720378
266 1 0.163125 0.331196 0.732505
106 1 0.281348 0.454738 0.696286
254 1 0.392591 0.285417 0.654628
15 1 0.422677 0.435434 0.729605
130 1 0.302753 0.320155 0.77956
115 1 0.0931383 0.0706361 0.839765
174 1 0.0462175 0.198104 0.945922
280 1 0.189545 0.451282 0.844885
248 1 0.252238 0.0983237 0.809249
292 2 0.492368 0.209474 0.943674
259 1 0.381845 0.162736 0.872078
129 1 0.341162 0.29333 0.924476
85 1 0.412918 0.0626051 0.995589
340 2 0.4731 0.452059 0.846335
171 1 0.200508 0.229035 0.868368
58 1 0.0698387 0.337206 0.862506
308 2 0.226512 0.352411 0.915846
98 1 0.345633 0.445497 0.864207
272 1 0.0236339 0.0449301 0.969798
145 1 0.479973 0.332954 0.861042
3 1 0.127719 0.392155 0.989123
61 1 0.253533 0.124333 0.962313
43 1 0.415573 0.485918 0.990969
312 2 0.47382 0.0809575 0.890915
350 2 0.348988 0.0173171 0.893308
261 1 0.0442207 0.62625 0.12052
257 1 0.195525 0.585348 0.104023
184 1 0.180132 0.743465 0.0915172
48 1 0.455466 0.788128 0.114065
182 1 0.451454 0.616439 0.139077
253 1 0.476362 0.927883 0.0481538
232 1 0.338955 0.508115 0.110903
52 1 0.294262 0.672801 0.175908
25 1 0.3193 0.656832 0.02628
122 1 0.0160783 0.780215 0.101098
323 2 0.069638 0.889053 0.148585
63 1 0.111749 0.888544 0.0294408
118 1 0.371563 0.933224 0.179944
125 1 0.314238 0.811203 0.0946804
83 1 0.257296 0.978996 0.0755238
10 1 0.193546 0.873852 0.185465
20 1 0.0784243 0.568987 0.366898
282 1 0.229525 0.62754 0.370148
11 1 0.149387 0.629842 0.236923
322 2 0.357558 0.780782 0.223091
127 1 0.0570789 0.747022 0.241382
299 2 0.120837 0.690527 0.348926
275 1 0.341947 0.531137 0.369505
352 2 0.402476 0.556181 0.247739
113 1 0.367011 0.6679 0.296748
95 1 0.232684 0.764027 0.277414
173 1 0.0383476 0.928728 0.276043
93 1 0.12897 0.838082 0.37596
332 2 0.37833 0.780469 0.357689
7 1 0.176924 0.971051 0.311586
56 1 0.481502 0.819616 0.27076
202 1 0.322802 0.887941 0.318875
65 1 0.489308 0.988993 0.295756
359 2 0.468009 0.86779 0.384856
277 1 0.267051 0.519832 0.2352
205 1 0.114917 0.722714 0.480262
309 2 0.221034 0.644505 0.522413
68 1 0.217307 0.750084 0.59483
105 1 0.140934 0.556875 0.496898
345 2 0.190955 0.990183 0.557621
152 1 0.339818 0.656309 0.484343
270 1 0.47683 0.675296 0.554441
120 1 0.441424 0.530091 0.486886
162 1 0.284825 0.515953 0.542796
164 1 0.0841926 0.963936 0.44309
186 1 0.163246 0.86139 0.518528
153 1 0.30214 0.913549 0.513484
200 1 0.254695 0.771999 0.423908
319 2 0.222475 0.913775 0.418269
176 1 0.418545 0.80459 0.493634
225 1 0.415531 0.969177 0.434826
326 2 0.367728 0.734821 0.593241
318 2 0.235022 0.500749 0.420104
327 2 0.42964 0.636359 0.399895
180 1 0.00215451 0.842991 0.496686
143 1 0.18094 0.610548 0.669872
334 2 0.0928697 0.691093 0.739404
217 1 0.133839 0.811808 0.723999
354 2 0.174858 0.504437 0.740367
268 1 0.0414024 0.556959 0.618538
36 1 0.0869445 0.944243 0.624838
111 1 0.45912 0.715538 0.701682
89 1 0.298994 0.754494 0.71793
333 2 0.364764 0.649252 0.768541
269 1 0.326436 0.616724 0.645628
138 1 0.244389 0.899474 0.648474
208 1 0.396136 0.853929 0.636583
33 1 0.0766039 0.704972 0.610176
336 2 0.055598 0.820874 0.622999
117 1 0.326505 0.988191 0.737365
8 1 0.490346 0.549688 0.667152
242 1 0.0767634 0.578182 0.796344
64 1 0.0012526 0.961981 0.767726
188 1 0.165919 0.996916 0.735404
237 1 0.41497 0.822081 0.800315
148 1 0.193872 0.696278 0.813697
335 2 0.170975 0.577463 0.874921
163 1 0.0421163 0.720962 0.848459
321 2 0.390429 0.796676 0.987653
35 1 0.032689 0.528327 0.943179
229 1 0.344403 0.706895 0.885398
245 1 0.470829 0.95419 0.874283
331 2 0.351557 0.564739 0.918211
214 1 0.448008 0.569091 0.818859
349 2 0.477136 0.719925 0.859369
49 1 0.143997 0.65879 0.976539
79 1 0.100195 0.90132 0.855694
110 1 0.195787 0.985966 0.928255
57 1 0.223391 0.783678 0.940519
80 1 0.27145 0.570707 0.80076
330 2 0.0920362 0.799208 0.941421
29 1 0.343206 0.909807 0.969849
241 1 0.464197 0.640394 0.977434
82 1 0.249868 0.534628 0.97085
31 1 0.247113 0.874062 0.811147
112 1 0.665878 0.199215 0.0853108
260 1 0.992268 0.430646 0.0606166
224 1 0.837573 0.394676 0.0923423
133 1 0.714321 0.0290839 0.0700476
187 1 0.944012 0.491564 0.194196
141 1 0.814884 0.231289 0.0639465
249 1 0.857592 0.0874169 0.0556987
81 1 0.908954 0.148284 0.195612
278 1 0.711183 0.470506 0.159282
13 1 0.693879 0.355361 0.0522507
297 2 0.558456 0.306907 0.0947343
343 2 0.59951 0.436557 0.121726
156 1 0.986919 0.273568 0.134565
114 1 0.590914 0.0814706 0.124625
306 2 0.950401 0.170098 0.0304135
296 2 0.761804 0.485595 0.0360034
219 1 0.76386 0.138267 0.198295
19 1 0.804161 0.275441 0.372642
197 1 0.588944 0.218541 0.21395
337 2 0.58133 0.155018 0.345519
226 1 0.707382 0.12291 0.366054
104 1 0.950717 0.231597 0.340088
218 1 0.772007 0.427921 0.329521
209 1 0.854732 0.119502 0.352311
238 1 0.91108 0.380181 0.373654
305 2 0.826652 0.437556 0.222577
256 1 0.873506 0.314676 0.223067
24 1 0.578289 0.379656 0.255905
220 1 0.652163 0.262623 0.347244
316 2 0.662903 0.389807 0.363457
26 1 0.634963 0.0487129 0.260972
2 1 0.855542 0.0068959 0.240291
230 1 0.715866 0.318214 0.216051
44 1 0.76727 0.18703 0.507384
99 1 0.668741 0.0489031 0.524294
228 1 0.608851 0.19625 0.480898
351 2 0.799204 0.400814 0.449848
274 1 0.919058 0.147368 0.571448
276 1 0.549285 0.388444 0.443726
59 1 0.827858 0.0452785 0.476838
147 1 0.688813 0.497644 0.461548
246 1 0.982611 0.274444 0.482831
178 1 0.956686 0.431069 0.57719
265 1 0.847939 0.314788 0.533905
255 1 0.601476 0.278959 0.599268
192 1 0.697426 0.339427 0.491917
314 2 0.610899 0.138839 0.596242
324 2 0.881952 0.19849 0.455252
71 1 0.578483 0.0282599 0.41031
91 1 0.972174 0.0171339 0.533475
78 1 0.766061 0.432509 0.58451
247 1 0.508568 0.0849886 0.528138
27 1 0.599223 0.038815 0.667548
167 1 0.775177 0.123279 0.646373
92 1 0.982678 0.277577 0.637241
240 1 0.912425 0.164833 0.755025
289 2 0.856856 0.235055 0.659481
107 1 0.887565 0.0357946 0.688942
207 1 0.737749 0.271118 0.635934
90 1 0.654046 0.174062 0.728982
67 1 0.716351 0.398228 0.717778
4 1 0.779338 0.259974 0.778523
288 1 0.528923 0.314312 0.727836
201 1 0.874235 0.371338 0.690322
46 1 0.57678 0.455552 0.778051
357 2 0.948378 0.488168 0.692746
194 1 0.595399 0.431626 0.622176
227 1 0.505789 0.176832 0.664471
76 1 0.761864 0.103362 0.797289
281 1 0.948518 0.461346 0.83232
293 2 0.643413 0.164893 0.866351
101 1 0.918892 0.309301 0.98802
199 1 0.576185 0.0769802 0.976614
30 1 0.600868 0.255305 0.970204
137 1 0.522424 0.184251 0.829604
353 2 0.980009 0.393022 0.930999
131 1 0.888341 0.172176 0.92832
341 2 0.824757 0.412516 0.831862
34 1 0.894052 0.0412816 0.845271
291 2 0.985969 0.132166 0.857988
102 1 0.705471 0.42502 0.916077
206 1 0.646288 0.285169 0.83256
161 1 0.73263 0.141088 0.948398
108 1 0.555979 0.405233 0.995668
5 1 0.607462 0.0366562 0.81846
155 1 0.852257 0.456905 0.942575
73 1 0.777479 0.291092 0.931636
123 1 0.931094 0.298539 0.824962
258 1 0.566477 0.535319 0.190741
233 1 0.581824 0.658729 0.0828007
294 2 0.51494 0.526249 0.0572415
124 1 0.8913 0.855695 0.160922
60 1 0.874813 0.797455 0.0160301
216 1 0.765918 0.612964 0.0747462
38 1 0.893399 0.682133 0.137755
211 1 0.903173 0.556641 0.049656
183 1 0.977856 0.985478 0.124296
239 1 0.761979 0.754917 0.131548
264 1 0.601007 0.824182 0.0561044
344 2 0.595162 0.959958 0.0630291
54 1 0.573334 0.920998 0.190881
23 1 0.738141 0.881198 0.0292037
315 2 0.841876 0.976326 0.103866
298 2 0.98829 0.87692 0.0270899
53 1 0.647695 0.525957 0.0323503
189 1 0.529722 0.666032 0.264974
213 1 0.69107 0.647451 0.21516
169 1 0.668089 0.527106 0.305947
179 1 0.938449 0.994567 0.378551
181 1 0.966336 0.634566 0.262954
72 1 0.7334 0.82582 0.322025
317 2 0.88873 0.648082 0.374052
215 1 0.822724 0.565188 0.229588
62 1 0.751735 0.973539 0.36747
126 1 0.8163 0.713991 0.276991
103 1 0.762268 0.612727 0.377044
74 1 0.896848 0.867715 0.323773
177 1 0.933197 0.527389 0.358473
223 1 0.598799 0.893764 0.350686
346 2 0.926132 0.761914 0.242594
32 1 0.626022 0.787879 0.21376
154 1 0.508357 0.50323 0.329927
28 1 0.987874 0.755063 0.37949
96 1 0.738331 0.922188 0.205968
18 1 0.835179 0.739129 0.425467
142 1 0.617393 0.633568 0.559255
17 1 0.769927 0.961196 0.59106
244 1 0.93265 0.726418 0.588827
146 1 0.759837 0.627705 0.5537
195 1 0.974394 0.6154 0.473754
307 2 0.56331 0.504596 0.520353
119 1 0.522592 0.925329 0.563084
50 1 0.759623 0.793818 0.570183
66 1 0.571358 0.600831 0.41626
279 1 0.577327 0.778811 0.53666
51 1 0.665288 0.888859 0.484744
149 1 0.838536 0.878819 0.46989
273 1 0.677831 0.732419 0.435935
16 1 0.847985 0.509292 0.473475
251 1 0.509115 0.74244 0.400364
212 1 0.694494 0.539699 0.671877
168 1 0.64948 0.727548 0.664439
39 1 0.589814 0.628557 0.761162
40 1 0.569723 0.775998 0.796739
295 2 0.518328 0.81199 0.667196
151 1 0.826187 0.745009 0.70477
320 2 0.790016 0.626467 0.674513
86 1 0.94044 0.638413 0.734715
69 1 0.836343 0.523477 0.753723
75 1 0.974076 0.790145 0.732343
166 1 0.643814 0.893022 0.64937
243 1 0.892545 0.874453 0.623303
342 2 0.758208 0.858325 0.675835
45 1 0.526724 0.922403 0.731056
109 1 0.735465 0.951247 0.753403
100 1 0.882093 0.564746 0.609052
37 1 0.743171 0.649045 0.78387
97 1 0.602781 0.68043 0.908544
77 1 0.750384 0.730131 0.969168
283 1 0.570791 0.535375 0.910427
185 1 0.889764 0.959574 0.977208
203 1 0.749058 0.583065 0.918265
287 1 0.857171 0.742675 0.862097
263 1 0.906032 0.598517 0.883294
356 2 0.632175 0.89186 0.809381
88 1 0.990635 0.688339 0.985917
303 2 0.659264 0.802732 0.944654
250 1 0.604903 0.931193 0.930398
165 1 0.724303 0.80526 0.81536
328 2 0.713691 0.519968 0.803844
311 2 0.802729 0.858075 0.924596
1 1 0.970664 0.846237 0.90967
9 1 0.766447 0.979489 0.900872
172 1 0.509198 0.817059 0.93779
302 2 0.868764 0.67711 0.991243
235 1 0.868342 0.891162 0.801675
ITEM: TIMESTEP
100000
ITEM: NUMBER OF ATOMS
360
ITEM: BOX BOUNDS pp pp pp
0.0000000000000000e+00 6.6943295008216896e+00
0.0000000000000000e+00 6.6943295008216896e+00
0.0000000000000000e+00 6.6943295008216896e+00
ITEM: ATOMS id type xs ys zs
285 1 0.083076 0.117792 0.159253
61 1 0.226988 0.107363 0.107771
63 1 0.0800372 0.0524855 0.011713
272 1 0.037234 0.210005 0.0431752
87 1 0.404886 0.124101 0.0707846
290 2 0.298976 0.206633 0.0662557
353 2 0.0885097 0.340193 0.0135356
204 1 0.173375 0.248918 0.0467306
140 1 0.298528 0.338128 0.0472266
82 1 0.126597 0.388497 0.121065
132 1 0.399594 0.259745 0.169021
98 1 0.0388161 0.464437 0.0184071
80 1 0.416419 0.407612 0.12288
232 1 0.281331 0.482014 0.0902801
134 1 0.120055 0.163354 0.313173
164 1 0.341088 0.0963138 0.37683
355 2 0.160964 0.335667 0.238954
255 1 0.466458 0.167728 0.358437
21 1 0.470693 0.432182 0.275221
277 1 0.374905 0.305829 0.325157
325 2 0.29169 0.198472 0.325314
94 1 0.202101 0.0464667 0.236216
121 1 0.341931 0.136144 0.22558
6 1 0.280415 0.351448 0.211938
222 1 0.197067 0.283894 0.351047
3 1 0.0796171 0.381975 0.315765
257 1 0.188493 0.463726 0.247324
301 2 0.190861 0.0792863 0.372966
41 1 0.221389 0.21557 0.19963
136 1 0.0532159 0.264301 0.204574
56 1 0.0857866 0.00883632 0.321974
175 1 0.288317 0.415749 0.391694
191 1 0.150236 0.498259 0.396133
159 1 0.236711 0.174447 0.469413
66 1 0.495804 0.364886 0.57092
116 1 0.0158093 0.107086 0.423378
193 1 0.089485 0.244326 0.449045
336 2 0.0483099 0.167554 0.561273
153 1 0.145308 0.0447365 0.526751
39 1 0.234264 0.483885 0.51992
47 1 0.377426 0.223965 0.470598
312 2 0.287395 0.0280661 0.488833
300 2 0.136003 0.268069 0.561587
92 1 0.0157184 0.38493 0.450503
190 1 0.119109 0.392726 0.564851
158 1 0.252224 0.32187 0.51564
352 2 0.373144 0.304652 0.568948
276 1 0.451393 0.409077 0.419931
309 2 0.38255 0.434362 0.541852
347 2 0.143667 0.354957 0.43587
288 1 0.466384 0.208641 0.58269
135 1 0.415113 0.0846957 0.549117
117 1 0.202442 0.0969636 0.749423
36 1 0.0909622 0.0383016 0.680738
240 1 0.161646 0.168909 0.626445
160 1 0.316538 0.21068 0.640099
137 1 0.391917 0.10725 0.726147
128 1 0.309347 0.402995 0.633114
15 1 0.169515 0.482455 0.680803
14 1 0.435985 0.432095 0.702925
188 1 0.12643 0.222246 0.774849
210 1 0.193192 0.323032 0.674841
354 2 0.0284157 0.277459 0.722227
4 1 0.0344613 0.398708 0.705047
194 1 0.419922 0.281418 0.726477
227 1 0.298734 0.371625 0.794887
274 1 0.275296 0.067457 0.611871
70 1 0.292358 0.213677 0.788169
192 1 0.00186305 0.287947 0.599889
236 1 0.189307 0.142616 0.937625
155 1 0.00318277 0.386067 0.89005
170 1 0.340528 0.170514 0.951472
248 1 0.319124 0.05551 0.843835
26 1 0.453086 0.179095 0.843517
259 1 0.461713 0.0551445 0.929025
171 1 0.0554608 0.239423 0.908689
58 1 0.139446 0.36536 0.828895
130 1 0.239287 0.287564 0.912645
22 1 0.18473 0.431214 0.968265
129 1 0.458775 0.354329 0.844782
313 2 0.374347 0.268832 0.869545
174 1 0.283531 0.0205337 0.989873
214 1 0.347504 0.416954 0.920976
196 1 0.432582 0.285131 0.992001
335 2 0.0826455 0.488003 0.908281
84 1 0.077572 0.0897511 0.840618
292 2 0.49464 0.166878 0.972519
184 1 0.184462 0.697081 0.176352
323 2 0.0799504 0.649917 0.0754891
11 1 0.140385 0.548662 0.135356
253 1 0.437411 0.884078 0.124618
252 1 0.182719 0.977772 0.0974961
241 1 0.497828 0.706006 0.183725
57 1 0.324442 0.644379 0.0897662
333 2 0.398922 0.755593 0.0740899
110 1 0.202845 0.816078 0.0832745
138 1 0.0533546 0.892201 0.0430447
122 1 0.00874992 0.758216 0.121449
260 1 0.0311721 0.983919 0.186489
350 2 0.28715 0.89282 0.127974
29 1 0.330752 0.778147 0.17365
169 1 0.426371 0.570977 0.17357
25 1 0.334159 0.848479 0.0151817
321 2 0.402607 0.956149 0.00253139
308 2 0.277678 0.601389 0.197998
43 1 0.433756 0.5356 0.0289992
83 1 0.341668 1.0042 0.155236
7 1 0.110805 0.864386 0.195587
127 1 0.0742135 0.601372 0.260126
95 1 0.22607 0.605348 0.309668
12 1 0.483613 0.726276 0.348046
28 1 0.189503 0.77107 0.317102
173 1 0.0339618 0.759013 0.280695
251 1 0.47134 0.989658 0.267096
282 1 0.364952 0.66782 0.293298
359 2 0.33664 1.0011 0.299728
162 1 0.339296 0.508332 0.280942
45 1 0.229602 0.954751 0.38283
118 1 0.25107 0.88635 0.24133
125 1 0.419146 0.844516 0.300996
202 1 0.472762 0.563031 0.380036
176 1 0.104478 0.650388 0.394514
198 1 0.199181 0.727161 0.4846
93 1 0.121541 0.573176 0.556304
113 1 0.434858 0.559628 0.539729
179 1 0.0901634 0.856898 0.410725
284 1 0.48779 0.905739 0.523801
168 1 0.342022 0.932003 0.5729
152 1 0.320069 0.5762 0.424138
48 1 0.407771 0.699627 0.497152
327 2 0.327596 0.787934 0.534539
200 1 0.385843 0.957013 0.414477
223 1 0.204741 0.878923 0.520311
52 1 0.315838 0.820821 0.412853
120 1 0.284667 0.614296 0.568899
319 2 0.0638086 0.96995 0.463398
356 2 0.433657 0.833604 0.429588
326 2 0.0479836 0.898696 0.582894
318 2 0.295002 0.699613 0.400602
281 1 0.0555408 0.533497 0.760157
269 1 0.172422 0.65141 0.689275
268 1 0.0571388 0.720029 0.736633
338 2 0.0289618 0.526328 0.61468
139 1 0.459055 0.904731 0.679488
89 1 0.30979 0.537962 0.718656
295 2 0.340306 0.716944 0.730497
68 1 0.441315 0.600213 0.68497
31 1 0.433723 0.799054 0.782491
148 1 0.2157 0.81003 0.772677
225 1 0.0124075 0.921499 0.728512
339 2 0.1061 0.84094 0.706351
221 1 0.187296 0.929651 0.662754
208 1 0.316275 0.933582 0.740058
205 1 0.267976 0.783918 0.641164
270 1 0.429158 0.757029 0.632332
186 1 0.110721 0.766763 0.60537
242 1 0.0762234 0.633949 0.86824
33 1 0.253756 0.666274 0.819376
334 2 0.16311 0.738821 0.875483
280 1 0.159863 0.579799 0.993527
229 1 0.329738 0.77972 0.881163
303 2 0.448524 0.806499 0.952976
49 1 0.236052 0.708983 0.97733
8 1 0.407307 0.672072 0.967981
46 1 0.404791 0.643423 0.823914
143 1 0.314347 0.566629 0.921271
217 1 0.0300419 0.94666 0.900093
106 1 0.212085 0.503381 0.835027
267 1 0.165232 0.959383 0.819229
75 1 0.0620116 0.815414 0.842804
42 1 0.194612 0.853341 0.934424
358 2 0.294769 0.927031 0.902294
144 1 0.500002 0.511392 0.875354
304 2 0.374867 0.506604 0.825114
79 1 0.421906 0.914515 0.887014