LAMMPS (15 Sep 2022)
OMP_NUM_THREADS environment is not set. Defaulting to 1 thread. (src/comm.cpp:98)
  using 1 OpenMP thread(s) per MPI task
Lattice spacing in x,y,z = 1.4938016 1.4938016 1.4938016
Created orthogonal box = (0 0 0) to (6.6943295 6.6943295 6.6943295)
  2 by 2 by 5 MPI processor grid
Created 365 atoms
  using lattice units in orthogonal box = (0 0 0) to (6.6943295 6.6943295 6.6943295)
  create_atoms CPU = 0.014 seconds
Setting atom values ...
  77 settings made for type
5 atoms in group extra
Deleted 5 atoms, new total = 360
288 atoms in group typea
72 atoms in group typeb
Minimizing initial structure
Generated 0 of 1 mixed pair_coeff terms from geometric mixing rule
Neighbor list info ...
  update: every = 1 steps, delay = 0 steps, check = yes
  max neighbors/atom: 2000, page size: 100000
  master list distance cutoff = 3
  ghost atom cutoff = 3
  binsize = 1.5, bins = 5 5 5
  1 neighbor lists, perpetual/occasional/extra = 1 0 0
  (1) pair lj/cut, perpetual
      attributes: half, newton on
      pair build: half/bin/atomonly/newton
      stencil: half/bin/3d
      bin: standard
Setting up Verlet run ...
  Unit style    : lj
  Current step  : 0
  Time step     : 0.001
Per MPI rank memory allocation (min/avg/max) = 4.081 | 4.081 | 4.081 Mbytes
   Step          Temp          E_pair         E_mol          TotEng         Press     
         0   0              31.41578       0              31.41578       200.04157    
      1000   16.748973      6.1797313      0              31.233404      97.760244    
      2000   16.952491      5.8740924      0              31.232193      96.298641    
      3000   16.513472      6.5323232      0              31.233726      100.03238    
      4000   16.558491      6.4653208      0              31.234064      99.344227    
      5000   17.037982      5.7487811      0              31.234762      95.808991    
      6000   16.818125      6.075159       0              31.232272      97.911549    
      7000   16.701361      6.2513254      0              31.233778      98.396451    
      8000   17.175692      5.54015        0              31.232122      95.507084    
      9000   17.197568      5.507776       0              31.232471      95.20318     
     10000   16.644048      6.3361661      0              31.232888      98.405925    
Loop time of 0.873386 on 20 procs for 10000 steps with 360 atoms

Performance: 989253.104 tau/day, 11449.689 timesteps/s, 4.122 Matom-step/s
99.7% CPU use with 20 MPI tasks x 1 OpenMP threads

MPI task timing breakdown:
Section |  min time  |  avg time  |  max time  |%varavg| %total
---------------------------------------------------------------
Pair    | 0.075498   | 0.08509    | 0.091947   |   1.7 |  9.74
Neigh   | 0.021491   | 0.02289    | 0.024057   |   0.5 |  2.62
Comm    | 0.64872    | 0.67       | 0.69741    |   1.6 | 76.71
Output  | 0.0018018  | 0.0018261  | 0.0019484  |   0.1 |  0.21
Modify  | 0.0025896  | 0.0028853  | 0.0031126  |   0.2 |  0.33
Other   |            | 0.09069    |            |       | 10.38

Nlocal:             18 ave          23 max          14 min
Histogram: 1 2 2 2 5 4 2 1 0 1
Nghost:         755.05 ave         764 max         750 min
Histogram: 5 1 4 2 1 1 3 2 0 1
Neighs:        1033.15 ave        1358 max         767 min
Histogram: 1 1 3 3 4 5 2 0 0 1

Total # of neighbors = 20663
Ave neighs/atom = 57.397222
Neighbor list builds = 603
Dangerous builds = 0
Total wall time: 0:00:01
LAMMPS (15 Sep 2022)
OMP_NUM_THREADS environment is not set. Defaulting to 1 thread. (src/comm.cpp:98)
  using 1 OpenMP thread(s) per MPI task
Reading restart file ...
  restart file = 15 Sep 2022, LAMMPS = 15 Sep 2022
  restoring atom style atomic from restart
  orthogonal box = (0 0 0) to (6.6943295 6.6943295 6.6943295)
  2 by 2 by 5 MPI processor grid
  restoring pair style lj/cut from restart
  360 atoms
  read_restart CPU = 0.036 seconds
Setting up annealing run
Generated 0 of 1 mixed pair_coeff terms from geometric mixing rule
Neighbor list info ...
  update: every = 1 steps, delay = 20 steps, check = yes
  max neighbors/atom: 2000, page size: 100000
  master list distance cutoff = 3
  ghost atom cutoff = 3
  binsize = 1.5, bins = 5 5 5
  1 neighbor lists, perpetual/occasional/extra = 1 0 0
  (1) pair lj/cut, perpetual
      attributes: half, newton on
      pair build: half/bin/atomonly/newton
      stencil: half/bin/3d
      bin: standard
Setting up Verlet run ...
  Unit style    : lj
  Current step  : 0
  Time step     : 0.002
Per MPI rank memory allocation (min/avg/max) = 4.08 | 4.08 | 4.081 Mbytes
   Step          Temp          E_pair         E_mol          TotEng         Press     
         0   1.5            6.3361661      0              8.5799161      80.283548    
      1000   1.4461214     -5.1952737      0             -3.032117       15.430585    
      2000   1.5282586     -5.1013159      0             -2.8152958      16.176285    
      3000   1.3742282     -5.3073074      0             -3.2516911      14.621194    
      4000   1.5872232     -5.2297779      0             -2.8555565      15.239885    
      5000   1.5118991     -5.2233578      0             -2.9618087      15.422709    
      6000   1.4872445     -5.3107789      0             -3.086109       14.887981    
      7000   1.4506657     -5.1904225      0             -3.0204685      15.285853    
      8000   1.4572048     -5.332445       0             -3.1527095      14.429837    
      9000   1.5619954     -5.2128968      0             -2.876412       15.397442    
     10000   1.5788757     -5.3146031      0             -2.9528682      14.847006    
Loop time of 0.870771 on 20 procs for 10000 steps with 360 atoms

Performance: 1984448.237 tau/day, 11484.075 timesteps/s, 4.134 Matom-step/s
99.7% CPU use with 20 MPI tasks x 1 OpenMP threads

MPI task timing breakdown:
Section |  min time  |  avg time  |  max time  |%varavg| %total
---------------------------------------------------------------
Pair    | 0.070349   | 0.08045    | 0.090778   |   1.9 |  9.24
Neigh   | 0.012231   | 0.013317   | 0.014255   |   0.4 |  1.53
Comm    | 0.63436    | 0.65629    | 0.68223    |   1.4 | 75.37
Output  | 0.0013931  | 0.0014235  | 0.0015548  |   0.1 |  0.16
Modify  | 0.073273   | 0.091384   | 0.1079     |   4.0 | 10.49
Other   |            | 0.02791    |            |       |  3.21

Nlocal:             18 ave          21 max          14 min
Histogram: 1 0 1 0 6 3 0 7 1 1
Nghost:         751.35 ave         762 max         742 min
Histogram: 1 3 3 3 1 0 4 1 1 3
Neighs:        1036.35 ave        1187 max         734 min
Histogram: 1 0 1 0 2 1 4 5 2 4

Total # of neighbors = 20727
Ave neighs/atom = 57.575
Neighbor list builds = 347
Dangerous builds = 8
Total wall time: 0:00:01
LAMMPS (15 Sep 2022)
OMP_NUM_THREADS environment is not set. Defaulting to 1 thread. (src/comm.cpp:98)
  using 1 OpenMP thread(s) per MPI task
Reading restart file ...
  restart file = 15 Sep 2022, LAMMPS = 15 Sep 2022
  restoring atom style atomic from restart
  orthogonal box = (0 0 0) to (6.6943295 6.6943295 6.6943295)
  2 by 2 by 5 MPI processor grid
  restoring pair style lj/cut from restart
  360 atoms
  read_restart CPU = 0.036 seconds
Setting up annealing run
Resetting global fix info from restart file:
  fix style: nvt, fix ID: 1
Generated 0 of 1 mixed pair_coeff terms from geometric mixing rule
All restart file global fix info was re-assigned
Neighbor list info ...
  update: every = 1 steps, delay = 20 steps, check = yes
  max neighbors/atom: 2000, page size: 100000
  master list distance cutoff = 3
  ghost atom cutoff = 3
  binsize = 1.5, bins = 5 5 5
  1 neighbor lists, perpetual/occasional/extra = 1 0 0
  (1) pair lj/cut, perpetual
      attributes: half, newton on
      pair build: half/bin/atomonly/newton
      stencil: half/bin/3d
      bin: standard
Setting up Verlet run ...
  Unit style    : lj
  Current step  : 0
  Time step     : 0.002
Per MPI rank memory allocation (min/avg/max) = 4.08 | 4.08 | 4.081 Mbytes
   Step          Temp          E_pair         E_mol          TotEng         Press     
         0   1             -5.3146031      0             -3.8187698      14.154285    
      2000   1.0263585     -6.0153409      0             -4.4800796      9.9850647    
      4000   1.045504      -6.0146371      0             -4.4507374      10.037996    
      6000   1.0094151     -6.0507725      0             -4.5408558      9.7739058    
      8000   1.0111728     -6.0770523      0             -4.5645063      9.3407837    
     10000   0.98407952    -6.0943173      0             -4.6222984      9.320228     
     12000   1.0117223     -5.940245       0             -4.426877       10.41109     
     14000   0.94966598    -6.0485856      0             -4.6280435      9.6747386    
     16000   0.9901105     -5.9081217      0             -4.4270814      10.570127    
     18000   1.1192221     -6.0008303      0             -4.3266605      10.211878    
     20000   1.0296471     -6.0434998      0             -4.5033193      9.6811508    
     22000   0.91688291    -6.0412515      0             -4.6697475      9.6887864    
     24000   0.94702755    -6.042306       0             -4.6257106      9.6711293    
     26000   0.98747709    -5.9760308      0             -4.4989296      9.9293483    
     28000   0.96570957    -6.043051       0             -4.5985105      9.7154452    
     30000   1.0566938     -6.1512547      0             -4.5706169      8.8873703    
     32000   1.0976825     -5.9235356      0             -4.2815855      10.441244    
     34000   0.98052336    -6.0845871      0             -4.6178876      9.4098852    
     36000   1.0205282     -6.0647728      0             -4.5382327      9.5820328    
     38000   0.90580788    -5.9185498      0             -4.5636121      10.444257    
     40000   1.0008933     -5.9913782      0             -4.4942086      10.118057    
     42000   1.0605359     -5.961877       0             -4.3754921      10.406542    
     44000   0.95633024    -5.9855239      0             -4.5550132      9.9152469    
     46000   1.0184777     -6.0746685      0             -4.5511956      9.564146     
     48000   0.97186454    -6.0418146      0             -4.5880672      9.6129856    
     50000   0.89270321    -6.0012388      0             -4.6659036      9.7424676    
Loop time of 4.43527 on 20 procs for 50000 steps with 360 atoms

Performance: 1948020.750 tau/day, 11273.268 timesteps/s, 4.058 Matom-step/s
99.7% CPU use with 20 MPI tasks x 1 OpenMP threads

MPI task timing breakdown:
Section |  min time  |  avg time  |  max time  |%varavg| %total
---------------------------------------------------------------
Pair    | 0.35186    | 0.41508    | 0.48253    |   6.0 |  9.36
Neigh   | 0.048524   | 0.054427   | 0.061105   |   1.6 |  1.23
Comm    | 3.2219     | 3.3137     | 3.3975     |   2.6 | 74.71
Output  | 0.002777   | 0.0028599  | 0.0030997  |   0.1 |  0.06
Modify  | 0.31415    | 0.45986    | 0.60425    |  12.2 | 10.37
Other   |            | 0.1893     |            |       |  4.27

Nlocal:             18 ave          22 max          14 min
Histogram: 1 1 2 3 0 6 3 2 1 1
Nghost:         752.25 ave         765 max         741 min
Histogram: 2 2 4 1 1 3 2 1 2 2
Neighs:        1039.55 ave        1321 max         806 min
Histogram: 2 1 3 3 4 0 3 2 1 1

Total # of neighbors = 20791
Ave neighs/atom = 57.752778
Neighbor list builds = 1363
Dangerous builds = 0
Total wall time: 0:00:04
LAMMPS (15 Sep 2022)
OMP_NUM_THREADS environment is not set. Defaulting to 1 thread. (src/comm.cpp:98)
  using 1 OpenMP thread(s) per MPI task
Reading restart file ...
  restart file = 15 Sep 2022, LAMMPS = 15 Sep 2022
  restoring atom style atomic from restart
  orthogonal box = (0 0 0) to (6.6943295 6.6943295 6.6943295)
  2 by 2 by 5 MPI processor grid
  restoring pair style lj/cut from restart
  360 atoms
  read_restart CPU = 0.044 seconds
Setting up annealing run
Resetting global fix info from restart file:
  fix style: nvt, fix ID: 1
Generated 0 of 1 mixed pair_coeff terms from geometric mixing rule
All restart file global fix info was re-assigned
Neighbor list info ...
  update: every = 1 steps, delay = 25 steps, check = yes
  max neighbors/atom: 2000, page size: 100000
  master list distance cutoff = 3
  ghost atom cutoff = 3
  binsize = 1.5, bins = 5 5 5
  1 neighbor lists, perpetual/occasional/extra = 1 0 0
  (1) pair lj/cut, perpetual
      attributes: half, newton on
      pair build: half/bin/atomonly/newton
      stencil: half/bin/3d
      bin: standard
Setting up Verlet run ...
  Unit style    : lj
  Current step  : 0
  Time step     : 0.002
Per MPI rank memory allocation (min/avg/max) = 4.08 | 4.08 | 4.081 Mbytes
   Step          Temp          E_pair         E_mol          TotEng         Press     
         0   0.9           -6.0012388      0             -4.6549888      9.7511994    
      5000   0.89201742    -6.2250949      0             -4.8907855      8.4836461    
     10000   0.89022201    -6.2448458      0             -4.913222       8.0883737    
     15000   0.89914207    -6.1611331      0             -4.8161664      8.7417594    
     20000   0.88881589    -6.2313673      0             -4.9018469      8.3401563    
     25000   0.88102429    -6.2079289      0             -4.8900634      8.4108835    
     30000   0.86088243    -6.2109306      0             -4.923194       8.3748254    
     35000   0.90168853    -6.2905487      0             -4.9417729      8.0703345    
     40000   0.82255715    -6.2109397      0             -4.9805313      8.3882545    
     45000   0.88478978    -6.1269619      0             -4.8034638      9.0668763    
     50000   0.88116991    -6.226342       0             -4.9082587      8.4776013    
     55000   0.91844417    -6.164022       0             -4.7901826      8.7708111    
     60000   0.93415749    -6.1633081      0             -4.7659642      9.1175756    
     65000   0.81948791    -6.1041661      0             -4.8783488      9.2279273    
     70000   1.0020283     -6.3002315      0             -4.8013642      8.0973309    
     75000   0.86272552    -6.1897428      0             -4.8992492      8.6478479    
     80000   0.8736712     -6.2074876      0             -4.9006211      8.7062798    
     85000   0.96680922    -6.1489471      0             -4.7027616      9.0607966    
     90000   0.95829592    -6.1857328      0             -4.7522818      8.8789637    
     95000   0.86350031    -6.1893566      0             -4.8977041      8.5740146    
    100000   0.92683511    -6.2026611      0             -4.8162702      8.686886     
    105000   0.92842005    -6.1885945      0             -4.7998328      8.8558441    
    110000   0.88983886    -6.2102316      0             -4.879181       8.4613612    
    115000   0.90856403    -6.1146758      0             -4.7556155      9.1556588    
    120000   0.89493286    -6.1211568      0             -4.7824864      9.0232039    
    125000   0.90115523    -6.1740241      0             -4.826046       8.7883833    
    130000   0.86015608    -6.2509805      0             -4.9643303      8.200006     
    135000   0.84749881    -6.2003116      0             -4.9325947      8.5495003    
    140000   0.83213204    -6.2261855      0             -4.9814547      8.2718357    
    145000   0.87924757    -6.2164792      0             -4.9012713      8.6209475    
    150000   0.85942493    -6.2676265      0             -4.9820701      8.1586342    
Loop time of 12.9817 on 20 procs for 150000 steps with 360 atoms

Performance: 1996658.616 tau/day, 11554.737 timesteps/s, 4.160 Matom-step/s
99.7% CPU use with 20 MPI tasks x 1 OpenMP threads

MPI task timing breakdown:
Section |  min time  |  avg time  |  max time  |%varavg| %total
---------------------------------------------------------------
Pair    | 1.068      | 1.2198     | 1.3704     |   7.8 |  9.40
Neigh   | 0.14054    | 0.15234    | 0.1671     |   1.8 |  1.17
Comm    | 9.4825     | 9.7912     | 10.075     |   5.0 | 75.42
Output  | 0.0029819  | 0.0030564  | 0.0033633  |   0.1 |  0.02
Modify  | 1.0765     | 1.351      | 1.6867     |  16.7 | 10.41
Other   |            | 0.4642     |            |       |  3.58

Nlocal:             18 ave          21 max          14 min
Histogram: 1 2 0 0 6 4 0 1 3 3
Nghost:         751.45 ave         777 max         731 min
Histogram: 3 1 1 4 2 2 5 0 1 1
Neighs:         1040.8 ave        1321 max         686 min
Histogram: 1 0 1 1 5 4 3 1 3 1

Total # of neighbors = 20816
Ave neighs/atom = 57.822222
Neighbor list builds = 3852
Dangerous builds = 1
Total wall time: 0:00:13
LAMMPS (15 Sep 2022)
OMP_NUM_THREADS environment is not set. Defaulting to 1 thread. (src/comm.cpp:98)
  using 1 OpenMP thread(s) per MPI task
Reading restart file ...
  restart file = 15 Sep 2022, LAMMPS = 15 Sep 2022
  restoring atom style atomic from restart
  orthogonal box = (0 0 0) to (6.6943295 6.6943295 6.6943295)
  2 by 2 by 5 MPI processor grid
  restoring pair style lj/cut from restart
  360 atoms
  read_restart CPU = 0.041 seconds
Setting up annealing run
Resetting global fix info from restart file:
  fix style: nvt, fix ID: 1
Generated 0 of 1 mixed pair_coeff terms from geometric mixing rule
All restart file global fix info was re-assigned
Neighbor list info ...
  update: every = 1 steps, delay = 25 steps, check = yes
  max neighbors/atom: 2000, page size: 100000
  master list distance cutoff = 3
  ghost atom cutoff = 3
  binsize = 1.5, bins = 5 5 5
  1 neighbor lists, perpetual/occasional/extra = 1 0 0
  (1) pair lj/cut, perpetual
      attributes: half, newton on
      pair build: half/bin/atomonly/newton
      stencil: half/bin/3d
      bin: standard
Setting up Verlet run ...
  Unit style    : lj
  Current step  : 0
  Time step     : 0.002
Per MPI rank memory allocation (min/avg/max) = 4.08 | 4.08 | 4.081 Mbytes
   Step          Temp          E_pair         E_mol          TotEng         Press     
         0   0.8           -6.2676265      0             -5.0709599      8.0875224    
      5000   0.80706273    -6.3981963      0             -5.1909649      7.3453468    
     10000   0.78350398    -6.2516318      0             -5.0796404      8.2479449    
     15000   0.72557155    -6.2293526      0             -5.1440185      8.09167      
     20000   0.84494422    -6.2750387      0             -5.011143       8.3639574    
     25000   0.84942279    -6.3560318      0             -5.0854369      7.5471411    
     30000   0.75767571    -6.3399712      0             -5.2066146      7.51357      
     35000   0.83669987    -6.3510197      0             -5.0994562      7.7766184    
     40000   0.80002584    -6.3930011      0             -5.1962958      7.3709925    
     45000   0.81854043    -6.2394644      0             -5.0150644      8.2898772    
     50000   0.83455087    -6.393517       0             -5.145168       7.3521379    
     55000   0.79215191    -6.389018       0             -5.2040907      7.4635363    
     60000   0.76313735    -6.2857748      0             -5.1442486      7.9866884    
     65000   0.84436744    -6.2946619      0             -5.031629       8.0469016    
     70000   0.75455505    -6.3134089      0             -5.1847203      7.7831826    
     75000   0.79622093    -6.3569286      0             -5.1659148      7.59912      
     80000   0.82178796    -6.2856139      0             -5.0563561      8.0525485    
     85000   0.82681716    -6.2965682      0             -5.0597875      7.9193326    
     90000   0.8016078     -6.3314747      0             -5.1324031      7.88768      
     95000   0.7877932     -6.2972072      0             -5.1187998      7.89621      
    100000   0.77070356    -6.3387846      0             -5.1859405      7.5150414    
    105000   0.78906432    -6.3066181      0             -5.1263093      7.8481664    
    110000   0.78667967    -6.3322116      0             -5.1554699      7.6632474    
    115000   0.76512325    -6.2942016      0             -5.1497047      7.8004151    
    120000   0.85133265    -6.3773137      0             -5.103862       7.3422936    
    125000   0.76529993    -6.3640101      0             -5.219249       7.411786     
    130000   0.75671373    -6.4991653      0             -5.3672476      6.6472761    
    135000   0.81772677    -6.3712243      0             -5.1480414      7.5075489    
    140000   0.75052105    -6.3113251      0             -5.1886707      7.8559486    
    145000   0.82076536    -6.3178696      0             -5.0901414      7.7779628    
    150000   0.80521598    -6.3270623      0             -5.1225934      7.8386943    
Loop time of 12.9058 on 20 procs for 150000 steps with 360 atoms

Performance: 2008399.047 tau/day, 11622.680 timesteps/s, 4.184 Matom-step/s
99.7% CPU use with 20 MPI tasks x 1 OpenMP threads

MPI task timing breakdown:
Section |  min time  |  avg time  |  max time  |%varavg| %total
---------------------------------------------------------------
Pair    | 1.0783     | 1.2063     | 1.365      |   8.1 |  9.35
Neigh   | 0.13118    | 0.14138    | 0.15695    |   2.0 |  1.10
Comm    | 9.4818     | 9.7171     | 9.9694     |   4.7 | 75.29
Output  | 0.0058636  | 0.0059394  | 0.0062083  |   0.1 |  0.05
Modify  | 1.0719     | 1.3311     | 1.6135     |  17.0 | 10.31
Other   |            | 0.504      |            |       |  3.91

Nlocal:             18 ave          22 max          14 min
Histogram: 1 0 2 5 0 3 7 1 0 1
Nghost:         746.35 ave         762 max         734 min
Histogram: 3 1 2 4 2 2 2 1 1 2
Neighs:        1041.05 ave        1375 max         822 min
Histogram: 2 2 4 3 1 5 1 1 0 1

Total # of neighbors = 20821
Ave neighs/atom = 57.836111
Neighbor list builds = 3592
Dangerous builds = 0
Total wall time: 0:00:13
LAMMPS (15 Sep 2022)
OMP_NUM_THREADS environment is not set. Defaulting to 1 thread. (src/comm.cpp:98)
  using 1 OpenMP thread(s) per MPI task
Reading restart file ...
  restart file = 15 Sep 2022, LAMMPS = 15 Sep 2022
  restoring atom style atomic from restart
  orthogonal box = (0 0 0) to (6.6943295 6.6943295 6.6943295)
  2 by 2 by 5 MPI processor grid
  restoring pair style lj/cut from restart
  360 atoms
  read_restart CPU = 0.028 seconds
Setting up annealing run
Resetting global fix info from restart file:
  fix style: nvt, fix ID: 1
Generated 0 of 1 mixed pair_coeff terms from geometric mixing rule
All restart file global fix info was re-assigned
Neighbor list info ...
  update: every = 1 steps, delay = 25 steps, check = yes
  max neighbors/atom: 2000, page size: 100000
  master list distance cutoff = 3
  ghost atom cutoff = 3
  binsize = 1.5, bins = 5 5 5
  1 neighbor lists, perpetual/occasional/extra = 1 0 0
  (1) pair lj/cut, perpetual
      attributes: half, newton on
      pair build: half/bin/atomonly/newton
      stencil: half/bin/3d
      bin: standard
Setting up Verlet run ...
  Unit style    : lj
  Current step  : 0
  Time step     : 0.003
Per MPI rank memory allocation (min/avg/max) = 4.08 | 4.08 | 4.081 Mbytes
   Step          Temp          E_pair         E_mol          TotEng         Press     
         0   0.7           -6.3270623      0             -5.279979       7.7127858    
      6000   0.77118535    -6.5542077      0             -5.400643       6.3104541    
     12000   0.69982286    -6.4676291      0             -5.4208107      6.8435683    
     18000   0.71671991    -6.4767891      0             -5.4046956      6.8332867    
     24000   0.67976832    -6.4768         0             -5.4599798      6.6220742    
     30000   0.67709684    -6.530382       0             -5.517558       6.3056765    
     36000   0.68105982    -6.4516892      0             -5.4329373      6.8218896    
     42000   0.66011152    -6.5140532      0             -5.5266363      6.584478     
     48000   0.76738862    -6.542053       0             -5.3941675      6.3981552    
     54000   0.70939003    -6.5186552      0             -5.457526       6.3821592    
     60000   0.66856735    -6.5147083      0             -5.514643       6.4613376    
     66000   0.71073763    -6.5720041      0             -5.508859       6.1228033    
     72000   0.67184035    -6.5179123      0             -5.5129511      6.4230986    
     78000   0.70442651    -6.5716466      0             -5.517942       6.0975433    
     84000   0.74366642    -6.4800643      0             -5.3676633      6.5411033    
     90000   0.71564196    -6.4145363      0             -5.3440552      7.0527686    
     96000   0.70763692    -6.4725512      0             -5.4140443      6.7100097    
    102000   0.76316197    -6.5998539      0             -5.4582908      5.9855502    
    108000   0.65913472    -6.5989275      0             -5.6129718      6.0427029    
    114000   0.70409137    -6.4814186      0             -5.4282153      6.6434963    
    120000   0.71515415    -6.4862299      0             -5.4164785      6.51901      
    126000   0.76233478    -6.547474       0             -5.4071482      6.3255909    
    132000   0.68504794    -6.5343387      0             -5.5096212      6.2859167    
    138000   0.71489782    -6.6018124      0             -5.5324444      5.7924439    
    144000   0.70206405    -6.4966907      0             -5.4465199      6.5807287    
    150000   0.65082344    -6.5205113      0             -5.5469879      6.230875     
    156000   0.67085255    -6.5105932      0             -5.5071096      6.4868106    
    162000   0.68009961    -6.5441361      0             -5.5268204      6.1002413    
    168000   0.69224229    -6.5620977      0             -5.5266186      6.2630872    
    174000   0.67262066    -6.5051523      0             -5.4990239      6.4490111    
    180000   0.70426493    -6.5475821      0             -5.4941191      6.2825156    
Loop time of 15.3499 on 20 procs for 180000 steps with 360 atoms

Performance: 3039489.191 tau/day, 11726.424 timesteps/s, 4.222 Matom-step/s
99.7% CPU use with 20 MPI tasks x 1 OpenMP threads

MPI task timing breakdown:
Section |  min time  |  avg time  |  max time  |%varavg| %total
---------------------------------------------------------------
Pair    | 1.3129     | 1.4782     | 1.6026     |   7.7 |  9.63
Neigh   | 0.21304    | 0.23119    | 0.24717    |   1.9 |  1.51
Comm    | 11.369     | 11.701     | 12.111     |   5.8 | 76.23
Output  | 0.0030382  | 0.0031008  | 0.003468   |   0.2 |  0.02
Modify  | 1.2848     | 1.5968     | 1.9439     |  17.1 | 10.40
Other   |            | 0.3399     |            |       |  2.21

Nlocal:             18 ave          22 max          13 min
Histogram: 1 1 2 2 2 3 3 2 2 2
Nghost:          751.5 ave         762 max         737 min
Histogram: 2 0 1 2 1 5 1 2 4 2
Neighs:         1036.8 ave        1377 max         772 min
Histogram: 3 2 2 2 1 2 6 1 0 1

Total # of neighbors = 20736
Ave neighs/atom = 57.6
Neighbor list builds = 5903
Dangerous builds = 416
Total wall time: 0:00:15
LAMMPS (15 Sep 2022)
OMP_NUM_THREADS environment is not set. Defaulting to 1 thread. (src/comm.cpp:98)
  using 1 OpenMP thread(s) per MPI task
Reading restart file ...
  restart file = 15 Sep 2022, LAMMPS = 15 Sep 2022
  restoring atom style atomic from restart
  orthogonal box = (0 0 0) to (6.6943295 6.6943295 6.6943295)
  2 by 2 by 5 MPI processor grid
  restoring pair style lj/cut from restart
  360 atoms
  read_restart CPU = 0.050 seconds
Setting up annealing run
Resetting global fix info from restart file:
  fix style: nvt, fix ID: 1
Generated 0 of 1 mixed pair_coeff terms from geometric mixing rule
All restart file global fix info was re-assigned
Neighbor list info ...
  update: every = 1 steps, delay = 25 steps, check = yes
  max neighbors/atom: 2000, page size: 100000
  master list distance cutoff = 3
  ghost atom cutoff = 3
  binsize = 1.5, bins = 5 5 5
  1 neighbor lists, perpetual/occasional/extra = 1 0 0
  (1) pair lj/cut, perpetual
      attributes: half, newton on
      pair build: half/bin/atomonly/newton
      stencil: half/bin/3d
      bin: standard
Setting up Verlet run ...
  Unit style    : lj
  Current step  : 0
  Time step     : 0.003
Per MPI rank memory allocation (min/avg/max) = 4.08 | 4.08 | 4.081 Mbytes
   Step          Temp          E_pair         E_mol          TotEng         Press     
         0   0.65          -6.5475821      0             -5.5752904      6.2175786    
     70000   0.61920613    -6.6586997      0             -5.7324705      5.4114986    
    140000   0.62563033    -6.586563       0             -5.6507243      5.9955598    
    210000   0.62525329    -6.5674098      0             -5.6321351      6.1231524    
    280000   0.67100773    -6.6137282      0             -5.6100125      5.9156324    
    350000   0.68267045    -6.5905421      0             -5.5693809      5.8871934    
Loop time of 30.1963 on 20 procs for 350000 steps with 360 atoms

Performance: 3004340.859 tau/day, 11590.821 timesteps/s, 4.173 Matom-step/s
99.7% CPU use with 20 MPI tasks x 1 OpenMP threads

MPI task timing breakdown:
Section |  min time  |  avg time  |  max time  |%varavg| %total
---------------------------------------------------------------
Pair    | 2.5185     | 2.8982     | 3.273      |  12.9 |  9.60
Neigh   | 0.39982    | 0.43804    | 0.47869    |   3.5 |  1.45
Comm    | 22.358     | 22.964     | 23.523     |   6.7 | 76.05
Output  | 0.0021385  | 0.0021464  | 0.0021929  |   0.0 |  0.01
Modify  | 2.2978     | 3.147      | 3.9397     |  27.2 | 10.42
Other   |            | 0.7468     |            |       |  2.47

Nlocal:             18 ave          22 max          13 min
Histogram: 1 1 0 2 5 3 2 4 0 2
Nghost:         750.05 ave         765 max         738 min
Histogram: 2 1 4 4 3 1 0 2 2 1
Neighs:         1041.9 ave        1282 max         765 min
Histogram: 1 1 1 4 2 2 1 6 1 1

Total # of neighbors = 20838
Ave neighs/atom = 57.883333
Neighbor list builds = 10998
Dangerous builds = 421
Total wall time: 0:00:30
LAMMPS (15 Sep 2022)
OMP_NUM_THREADS environment is not set. Defaulting to 1 thread. (src/comm.cpp:98)
  using 1 OpenMP thread(s) per MPI task
Reading restart file ...
  restart file = 15 Sep 2022, LAMMPS = 15 Sep 2022
  restoring atom style atomic from restart
  orthogonal box = (0 0 0) to (6.6943295 6.6943295 6.6943295)
  2 by 2 by 5 MPI processor grid
  restoring pair style lj/cut from restart
  360 atoms
  read_restart CPU = 0.047 seconds
Setting up annealing run
Resetting global fix info from restart file:
  fix style: nvt, fix ID: 1
Generated 0 of 1 mixed pair_coeff terms from geometric mixing rule
All restart file global fix info was re-assigned
Neighbor list info ...
  update: every = 1 steps, delay = 25 steps, check = yes
  max neighbors/atom: 2000, page size: 100000
  master list distance cutoff = 3
  ghost atom cutoff = 3
  binsize = 1.5, bins = 5 5 5
  1 neighbor lists, perpetual/occasional/extra = 1 0 0
  (1) pair lj/cut, perpetual
      attributes: half, newton on
      pair build: half/bin/atomonly/newton
      stencil: half/bin/3d
      bin: standard
Setting up Verlet run ...
  Unit style    : lj
  Current step  : 0
  Time step     : 0.003
Per MPI rank memory allocation (min/avg/max) = 4.08 | 4.08 | 4.081 Mbytes
   Step          Temp          E_pair         E_mol          TotEng         Press     
         0   0.6           -6.5905421      0             -5.6930421      5.7882644    
     50000   0.61601668    -6.7027408      0             -5.7812826      5.1798267    
    100000   0.58984543    -6.7842113      0             -5.9019009      4.6273629    
    150000   0.61953451    -6.7251266      0             -5.7984062      5.0679433    
    200000   0.60110407    -6.726634       0             -5.8274825      4.9638562    
    250000   0.63223076    -6.7115522      0             -5.7658404      5.1796286    
    300000   0.62680222    -6.6605202      0             -5.7229286      5.3625478    
    350000   0.55590101    -6.6857349      0             -5.8541997      5.1771827    
    400000   0.61899682    -6.7159889      0             -5.7900728      5.0978644    
    450000   0.59444443    -6.7220979      0             -5.8329081      5.0637007    
    500000   0.58093594    -6.6927945      0             -5.8238112      5.0404861    
    550000   0.59089248    -6.6680445      0             -5.7841678      5.2776479    
    600000   0.57812297    -6.6694881      0             -5.8047125      5.3283727    
    650000   0.5884617     -6.7574143      0             -5.8771737      4.8129005    
    700000   0.58099541    -6.6459735      0             -5.7769012      5.5258144    
    750000   0.55542434    -6.6622163      0             -5.831394       5.4990575    
    800000   0.59678161    -6.6630736      0             -5.7703878      5.3968997    
    850000   0.60829834    -6.6555112      0             -5.7455982      5.5926322    
    900000   0.60623093    -6.6786752      0             -5.7718548      5.1505736    
    950000   0.65676784    -6.7318155      0             -5.7494003      5.070609     
   1000000   0.60227294    -6.6649888      0             -5.7640888      5.4374423    
Loop time of 86.1138 on 20 procs for 1000000 steps with 360 atoms

Performance: 3009971.144 tau/day, 11612.543 timesteps/s, 4.181 Matom-step/s
99.7% CPU use with 20 MPI tasks x 1 OpenMP threads

MPI task timing breakdown:
Section |  min time  |  avg time  |  max time  |%varavg| %total
---------------------------------------------------------------
Pair    | 7.2272     | 8.2837     | 9.3183     |  21.0 |  9.62
Neigh   | 1.0843     | 1.1914     | 1.2924     |   5.8 |  1.38
Comm    | 63.413     | 65.325     | 67.319     |  13.7 | 75.86
Output  | 0.0079943  | 0.008039   | 0.0082286  |   0.1 |  0.01
Modify  | 7.0368     | 8.9221     | 10.899     |  44.8 | 10.36
Other   |            | 2.383      |            |       |  2.77

Nlocal:             18 ave          23 max          15 min
Histogram: 3 3 3 5 0 2 0 1 2 1
Nghost:          753.1 ave         776 max         724 min
Histogram: 2 0 2 0 1 5 6 1 1 2
Neighs:        1037.05 ave        1332 max         767 min
Histogram: 1 0 4 5 4 1 0 2 0 3

Total # of neighbors = 20741
Ave neighs/atom = 57.613889
Neighbor list builds = 29907
Dangerous builds = 579
Total wall time: 0:01:26
LAMMPS (15 Sep 2022)
OMP_NUM_THREADS environment is not set. Defaulting to 1 thread. (src/comm.cpp:98)
  using 1 OpenMP thread(s) per MPI task
Reading restart file ...
  restart file = 15 Sep 2022, LAMMPS = 15 Sep 2022
  restoring atom style atomic from restart
  orthogonal box = (0 0 0) to (6.6943295 6.6943295 6.6943295)
  2 by 2 by 5 MPI processor grid
  restoring pair style lj/cut from restart
  360 atoms
  read_restart CPU = 0.035 seconds
Setting up annealing run
Resetting global fix info from restart file:
  fix style: nvt, fix ID: 1
Generated 0 of 1 mixed pair_coeff terms from geometric mixing rule
All restart file global fix info was re-assigned
Neighbor list info ...
  update: every = 1 steps, delay = 25 steps, check = yes
  max neighbors/atom: 2000, page size: 100000
  master list distance cutoff = 3
  ghost atom cutoff = 3
  binsize = 1.5, bins = 5 5 5
  1 neighbor lists, perpetual/occasional/extra = 1 0 0
  (1) pair lj/cut, perpetual
      attributes: half, newton on
      pair build: half/bin/atomonly/newton
      stencil: half/bin/3d
      bin: standard
Setting up Verlet run ...
  Unit style    : lj
  Current step  : 0
  Time step     : 0.003
Per MPI rank memory allocation (min/avg/max) = 4.08 | 4.08 | 4.081 Mbytes
   Step          Temp          E_pair         E_mol          TotEng         Press     
         0   0.55          -6.6649888      0             -5.8422804      5.374889     
     30000   0.56542011    -6.8633088      0             -6.0175346      4.2404571    
     60000   0.53752517    -6.8526428      0             -6.0485947      4.2011785    
     90000   0.54961598    -6.8211499      0             -5.999016       4.4643705    
    120000   0.55745253    -6.873439       0             -6.039583       4.1392423    
    150000   0.54489501    -6.8268928      0             -6.0118207      4.2626681    
    180000   0.55282068    -6.7584386      0             -5.931511       4.7252401    
    210000   0.57083395    -6.8535335      0             -5.999661       4.1613386    
    240000   0.56557329    -6.7690447      0             -5.9230413      4.6717917    
    270000   0.55401225    -6.816899       0             -5.988189       4.3591258    
    300000   0.58683153    -6.7934969      0             -5.9156947      4.570387     
    330000   0.55150957    -6.8580119      0             -6.0330456      4.1660155    
    360000   0.56859049    -6.8516323      0             -6.0011157      4.2167147    
    390000   0.55374726    -6.8327587      0             -6.0044451      4.28904      
    420000   0.55294675    -6.810936       0             -5.9838198      4.435176     
    450000   0.54614649    -6.8680385      0             -6.0510944      3.9270383    
    480000   0.55134281    -6.7832278      0             -5.9585109      4.6963324    
    510000   0.52033893    -6.768616       0             -5.9902757      4.7061236    
    540000   0.60685482    -6.7810547      0             -5.8733011      4.7298793    
    570000   0.54186713    -6.8479879      0             -6.037445       4.225021     
    600000   0.55001035    -6.8245373      0             -6.0018135      4.4537968    
    630000   0.48775237    -6.8358786      0             -6.1062824      4.1780167    
    660000   0.5431196     -6.8113746      0             -5.9989582      4.4812852    
    690000   0.56493087    -6.7241261      0             -5.8790837      4.8087025    
    720000   0.5740201     -6.8282236      0             -5.9695853      4.2653913    
    750000   0.53272076    -6.7518803      0             -5.9550189      4.7312375    
    780000   0.56066811    -6.8054096      0             -5.9667435      4.6889282    
    810000   0.5225994     -6.7894255      0             -6.0077039      4.7952443    
    840000   0.55343848    -6.8588902      0             -6.0310385      4.1825734    
    870000   0.56285823    -6.7749097      0             -5.9329676      4.5636291    
    900000   0.55160477    -6.8448413      0             -6.0197325      4.2331995    
    930000   0.52291402    -6.8498795      0             -6.0676873      4.3231039    
    960000   0.52150812    -6.7458876      0             -5.9657983      4.8834371    
    990000   0.50444879    -6.7783927      0             -6.0238214      4.6610703    
   1020000   0.51839965    -6.838371       0             -6.0629315      4.1693536    
   1050000   0.61398835    -6.7969036      0             -5.8784794      4.5973912    
   1080000   0.56215978    -6.8613105      0             -6.0204132      4.2086324    
   1110000   0.57021655    -6.7806503      0             -5.9277014      4.5882886    
   1140000   0.5615222     -6.790902       0             -5.9509584      4.5242292    
   1170000   0.54670382    -6.7372229      0             -5.9194451      4.8870224    
   1200000   0.53075196    -6.80531        0             -6.0113935      4.4470471    
   1230000   0.54019273    -6.8323818      0             -6.0243435      4.2695567    
   1260000   0.53419461    -6.805185       0             -6.0061189      4.4089425    
   1290000   0.50751917    -6.824579       0             -6.0654149      4.2202692    
   1320000   0.569391      -6.881274       0             -6.02956        3.965438     
   1350000   0.55350054    -6.8090982      0             -5.9811536      4.4161869    
   1380000   0.56823262    -6.8704566      0             -6.0204754      4.0497993    
   1410000   0.5362453     -6.8547992      0             -6.0526656      4.0012653    
   1440000   0.5418935     -6.8358441      0             -6.0252617      4.2233843    
   1470000   0.54805038    -6.7814785      0             -5.9616865      4.5255025    
   1500000   0.50404175    -6.8515395      0             -6.097577       4.0714199    
   1530000   0.54242425    -6.8408294      0             -6.0294532      4.3009826    
   1560000   0.51710725    -6.8053885      0             -6.0318822      4.5121651    
   1590000   0.55231857    -6.7758735      0             -5.9496969      4.5995719    
   1620000   0.5453157     -6.7932597      0             -5.9775583      4.4243002    
   1650000   0.54892049    -6.7923863      0             -5.9712927      4.4328244    
   1680000   0.51457443    -6.8279439      0             -6.0582263      4.1568355    
   1710000   0.59394334    -6.8408515      0             -5.9524113      4.2110206    
   1740000   0.57280944    -6.7874695      0             -5.930642       4.5713013    
   1770000   0.51152676    -6.7913717      0             -6.0262129      4.6127137    
   1800000   0.5778435     -6.7891456      0             -5.924788       4.490088     
   1830000   0.55720813    -6.7458385      0             -5.912348       4.7440354    
   1860000   0.50618967    -6.7308921      0             -5.9737167      4.8362864    
   1890000   0.5370257     -6.8016253      0             -5.9983244      4.4942013    
   1920000   0.5613982     -6.8416172      0             -6.001859       4.2478027    
   1950000   0.52422285    -6.8437222      0             -6.0595722      4.2713405    
   1980000   0.55848254    -6.7774265      0             -5.9420297      4.7061183    
   2010000   0.56706357    -6.7673483      0             -5.9191157      4.8160732    
   2040000   0.59339253    -6.7832738      0             -5.8956574      4.6488509    
   2070000   0.53799766    -6.8287542      0             -6.0239994      4.2264318    
   2100000   0.54297777    -6.8686863      0             -6.056482       4.0030298    
   2130000   0.56633138    -6.7336317      0             -5.8864943      4.8564497    
   2160000   0.50289708    -6.8236758      0             -6.0714256      4.2586125    
   2190000   0.54268582    -6.7403079      0             -5.9285404      5.0141824    
   2220000   0.56252953    -6.8183427      0             -5.9768922      4.3718857    
   2250000   0.52569414    -6.8391522      0             -6.0528014      4.1482933    
   2280000   0.57184072    -6.8233508      0             -5.9679723      4.3232621    
   2310000   0.5619908     -6.8269206      0             -5.986276       4.3634952    
   2340000   0.54131013    -6.8263985      0             -6.0166887      4.4587856    
   2370000   0.506716      -6.8693112      0             -6.1113486      4.1028896    
   2400000   0.60282262    -6.8671587      0             -5.9654365      4.1932945    
   2430000   0.54264842    -6.7687898      0             -5.9570782      4.5807325    
   2460000   0.54965742    -6.7525177      0             -5.9303218      4.7587284    
   2490000   0.53672428    -6.8423447      0             -6.0394946      4.1958519    
   2520000   0.52724416    -6.7943968      0             -6.0057274      4.5776538    
   2550000   0.56776545    -6.8120084      0             -5.9627259      4.4855736    
   2580000   0.54779116    -6.7647364      0             -5.9453321      4.7231088    
   2610000   0.55189906    -6.809118       0             -5.9835689      4.4130842    
   2640000   0.54470045    -6.845354       0             -6.0305729      4.0661466    
   2670000   0.55450673    -6.7511898      0             -5.9217402      4.8943031    
   2700000   0.57647224    -6.7730965      0             -5.9107901      4.8455037    
   2730000   0.56605221    -6.8369434      0             -5.9902237      4.2120006    
   2760000   0.53646245    -6.7500825      0             -5.947624       4.7472718    
   2790000   0.52768424    -6.7858059      0             -5.9964782      4.5042909    
   2820000   0.52581642    -6.7878061      0             -6.0012724      4.4336696    
   2850000   0.55052219    -6.8503586      0             -6.0268691      4.2048467    
   2880000   0.56440397    -6.8580333      0             -6.013779       4.2294608    
   2910000   0.56668254    -6.8342501      0             -5.9865875      4.2173526    
   2940000   0.56586225    -6.8514799      0             -6.0050443      4.1179844    
   2970000   0.56503722    -6.786658       0             -5.9414565      4.714629     
   3000000   0.58614281    -6.8796809      0             -6.002909       3.9371019    
Loop time of 259.403 on 20 procs for 3000000 steps with 360 atoms

Performance: 2997650.305 tau/day, 11565.009 timesteps/s, 4.163 Matom-step/s
99.7% CPU use with 20 MPI tasks x 1 OpenMP threads

MPI task timing breakdown:
Section |  min time  |  avg time  |  max time  |%varavg| %total
---------------------------------------------------------------
Pair    | 21.623     | 24.859     | 28.557     |  42.4 |  9.58
Neigh   | 3.0607     | 3.3777     | 3.7529     |  11.7 |  1.30
Comm    | 190.91     | 196.27     | 201.89     |  21.8 | 75.66
Output  | 0.0094796  | 0.0097382  | 0.010924   |   0.3 |  0.00
Modify  | 20.912     | 26.955     | 33.707     |  81.0 | 10.39
Other   |            | 7.937      |            |       |  3.06

Nlocal:             18 ave          24 max          14 min
Histogram: 1 0 5 2 5 3 2 1 0 1
Nghost:          759.9 ave         776 max         748 min
Histogram: 2 1 4 3 2 2 3 2 0 1
Neighs:         1036.6 ave        1344 max         771 min
Histogram: 1 1 2 5 4 1 2 3 0 1

Total # of neighbors = 20732
Ave neighs/atom = 57.588889
Neighbor list builds = 84851
Dangerous builds = 607
Total wall time: 0:04:19
LAMMPS (15 Sep 2022)
OMP_NUM_THREADS environment is not set. Defaulting to 1 thread. (src/comm.cpp:98)
  using 1 OpenMP thread(s) per MPI task
Reading restart file ...
  restart file = 15 Sep 2022, LAMMPS = 15 Sep 2022
  restoring atom style atomic from restart
  orthogonal box = (0 0 0) to (6.6943295 6.6943295 6.6943295)
  2 by 2 by 5 MPI processor grid
  restoring pair style lj/cut from restart
  360 atoms
  read_restart CPU = 0.034 seconds
Setting up annealing run
Resetting global fix info from restart file:
  fix style: nvt, fix ID: 1
Generated 0 of 1 mixed pair_coeff terms from geometric mixing rule
All restart file global fix info was re-assigned
Neighbor list info ...
  update: every = 1 steps, delay = 25 steps, check = yes
  max neighbors/atom: 2000, page size: 100000
  master list distance cutoff = 3
  ghost atom cutoff = 3
  binsize = 1.5, bins = 5 5 5
  1 neighbor lists, perpetual/occasional/extra = 1 0 0
  (1) pair lj/cut, perpetual
      attributes: half, newton on
      pair build: half/bin/atomonly/newton
      stencil: half/bin/3d
      bin: standard
Setting up Verlet run ...
  Unit style    : lj
  Current step  : 0
  Time step     : 0.003
Per MPI rank memory allocation (min/avg/max) = 4.08 | 4.081 | 4.081 Mbytes
   Step          Temp          E_pair         E_mol          TotEng         Press     
         0   0.5           -6.8796809      0             -6.1317642      3.8340177    
    100000   0.47534624    -6.9202814      0             -6.2092427      3.5797647    
    200000   0.5211378     -6.8716162      0             -6.0920809      4.0905651    
    300000   0.49791872    -6.8949249      0             -6.1501215      3.7981026    
    400000   0.51645239    -6.8738956      0             -6.1013689      4.0930322    
    500000   0.46793282    -6.9528964      0             -6.2529469      3.4546342    
    600000   0.50561814    -6.8809827      0             -6.1246622      3.8870751    
    700000   0.46657345    -6.8493185      0             -6.1514024      4.2117114    
    800000   0.54172456    -6.8250207      0             -6.014691       4.4847927    
    900000   0.50281614    -6.928906       0             -6.1767769      3.5170769    
   1000000   0.49181027    -6.9343404      0             -6.1986742      3.5451489    
   1100000   0.47109593    -6.9361979      0             -6.2315169      3.4975009    
   1200000   0.49934069    -6.9500946      0             -6.2031642      3.466483     
   1300000   0.54515903    -6.8973076      0             -6.0818405      4.015968     
   1400000   0.51343445    -6.9144775      0             -6.1464651      3.7964761    
   1500000   0.51236653    -6.8981423      0             -6.1317273      3.9715259    
   1600000   0.50016353    -6.9035283      0             -6.155367       3.8201494    
   1700000   0.51229563    -6.9429261      0             -6.1766172      3.4518516    
   1800000   0.5149646     -6.9071756      0             -6.1368744      3.8036903    
   1900000   0.47081044    -6.9171221      0             -6.2128681      3.4573765    
   2000000   0.48699303    -6.8835192      0             -6.1550588      4.0491346    
   2100000   0.51461333    -6.9373857      0             -6.1676099      3.5652643    
   2200000   0.47708104    -6.9172784      0             -6.2036447      3.7141912    
   2300000   0.52278585    -6.8762009      0             -6.0942004      4.2043441    
   2400000   0.51113725    -6.9031737      0             -6.1385975      3.8747435    
   2500000   0.49780454    -6.8983334      0             -6.1537007      3.8440191    
   2600000   0.54147715    -6.9314042      0             -6.1214447      3.686645     
   2700000   0.5478317     -6.9351344      0             -6.1156695      3.6151399    
   2800000   0.49180407    -6.9353866      0             -6.1997297      3.5252261    
   2900000   0.4955844     -6.9727548      0             -6.2314432      3.4191234    
   3000000   0.49948396    -6.9320155      0             -6.1848707      3.6128329    
   3100000   0.52558493    -6.9294068      0             -6.1432194      3.6466283    
   3200000   0.52197019    -6.883385       0             -6.1026046      3.8715994    
   3300000   0.49201173    -6.8771103      0             -6.1411427      3.8686682    
   3400000   0.48944763    -6.9177351      0             -6.1856031      3.63346      
   3500000   0.4836862     -7.0134743      0             -6.2899603      3.1451009    
   3600000   0.49671305    -6.9051635      0             -6.1621636      3.6827349    
   3700000   0.52804771    -6.8609704      0             -6.0710991      4.1567597    
   3800000   0.50882664    -6.9274435      0             -6.1663236      3.7094249    
   3900000   0.49209412    -6.8973197      0             -6.1612289      3.829851     
   4000000   0.49519028    -6.8847836      0             -6.1440614      3.9633408    
   4100000   0.50069144    -6.9178458      0             -6.1688948      3.4841511    
   4200000   0.53243339    -6.9344664      0             -6.1380348      3.5327791    
   4300000   0.50868703    -6.9628602      0             -6.2019492      3.3937485    
   4400000   0.48367893    -6.906859       0             -6.1833559      3.8350345    
   4500000   0.53940911    -6.8593438      0             -6.0524776      4.0045933    
   4600000   0.50601246    -6.8771598      0             -6.1202495      3.9394668    
   4700000   0.50822666    -6.9681216      0             -6.2078993      3.4054212    
   4800000   0.49080695    -6.8945522      0             -6.1603868      3.8679425    
   4900000   0.50726309    -6.8348255      0             -6.0760445      4.196238     
   5000000   0.49673215    -6.9333368      0             -6.1903083      3.7156806    
   5100000   0.48065124    -6.8966691      0             -6.177695       3.9510486    
   5200000   0.53216807    -6.8550111      0             -6.0589764      4.0456942    
   5300000   0.52904407    -6.8651195      0             -6.0737577      4.1156088    
   5400000   0.4746561     -6.9294688      0             -6.2194624      3.7709704    
   5500000   0.51609244    -6.9646451      0             -6.1926568      3.4154629    
   5600000   0.48761508    -6.8505605      0             -6.1211696      4.2371911    
   5700000   0.49357121    -6.8775758      0             -6.1392756      3.771248     
   5800000   0.51248039    -6.9001412      0             -6.1335559      3.9727008    
   5900000   0.49727839    -6.9365979      0             -6.1927523      3.7551423    
   6000000   0.51348324    -6.9105032      0             -6.1424178      3.7564976    
   6100000   0.49271139    -6.8554789      0             -6.1184648      4.2102248    
   6200000   0.49077138    -6.8723487      0             -6.1382365      3.8993759    
   6300000   0.54240885    -6.9063075      0             -6.0949542      3.9190217    
   6400000   0.48346663    -6.8428304      0             -6.1196449      4.2302867    
   6500000   0.50711087    -6.9496484      0             -6.1910951      3.549503     
   6600000   0.47984909    -6.9844188      0             -6.2666445      3.2657245    
   6700000   0.49814208    -6.8570862      0             -6.1119487      4.0554092    
   6800000   0.52375406    -6.9318198      0             -6.148371       3.6477606    
   6900000   0.46391354    -6.9112442      0             -6.2173068      3.5340542    
   7000000   0.53652805    -6.8874354      0             -6.0848789      3.9383262    
   7100000   0.50606036    -6.899645       0             -6.142663       3.8179367    
   7200000   0.51368204    -6.8655281      0             -6.0971454      4.0147427    
   7300000   0.53287392    -6.9073528      0             -6.1102623      3.7801465    
   7400000   0.51183647    -6.9136346      0             -6.1480126      3.7400527    
   7500000   0.53818598    -6.8665486      0             -6.0615121      4.2952902    
   7600000   0.47607408    -6.8976115      0             -6.185484       3.7118441    
   7700000   0.50441929    -6.8571316      0             -6.1026044      4.1809801    
   7800000   0.49580586    -6.8719988      0             -6.1303559      3.9912603    
   7900000   0.55782342    -6.8865605      0             -6.0521496      3.8726555    
   8000000   0.52123182    -6.9116233      0             -6.1319474      3.8181008    
   8100000   0.46326551    -6.8239471      0             -6.1309791      4.2132044    
   8200000   0.48914811    -6.8711654      0             -6.1394813      3.8763827    
   8300000   0.48214065    -6.8840027      0             -6.1628007      3.8715996    
   8400000   0.4880624     -6.9242498      0             -6.1941898      3.6174339    
   8500000   0.5370693     -6.9287324      0             -6.1253662      3.6014627    
   8600000   0.48643899    -6.8993812      0             -6.1717495      3.8527688    
   8700000   0.50666133    -6.9399236      0             -6.1820427      3.6790103    
   8800000   0.52029129    -6.9352111      0             -6.1569421      3.722042     
   8900000   0.47608288    -6.9341213      0             -6.2219806      3.6254836    
   9000000   0.51190363    -6.8958221      0             -6.1300996      3.8789091    
   9100000   0.56710787    -6.9140869      0             -6.0657881      3.9270759    
   9200000   0.49781456    -6.9282522      0             -6.1836046      3.6468541    
   9300000   0.51226604    -6.8806728      0             -6.1144082      4.0290965    
   9400000   0.50750008    -6.9882689      0             -6.2291334      3.2988577    
   9500000   0.492521      -6.8824802      0             -6.1457509      3.912807     
   9600000   0.46650901    -6.888892       0             -6.1910722      3.7263974    
   9700000   0.49737899    -6.8543024      0             -6.1103064      4.0774887    
   9800000   0.4890008     -6.8729682      0             -6.1415045      4.1108584    
   9900000   0.49884213    -6.8948814      0             -6.1486967      3.9812093    
  10000000   0.48363306    -6.9082138      0             -6.1847793      3.8425403    
Loop time of 861.656 on 20 procs for 10000000 steps with 360 atoms

Performance: 3008160.408 tau/day, 11605.557 timesteps/s, 4.178 Matom-step/s
99.7% CPU use with 20 MPI tasks x 1 OpenMP threads

MPI task timing breakdown:
Section |  min time  |  avg time  |  max time  |%varavg| %total
---------------------------------------------------------------
Pair    | 71.795     | 82.133     | 94.117     |  66.7 |  9.53
Neigh   | 9.7655     | 10.488     | 11.965     |  18.1 |  1.22
Comm    | 630.12     | 650.27     | 669.67     |  37.9 | 75.47
Output  | 0.012404   | 0.012696   | 0.014921   |   0.5 |  0.00
Modify  | 73.023     | 89.476     | 106.01     | 128.4 | 10.38
Other   |            | 29.27      |            |       |  3.40

Nlocal:             18 ave          21 max          13 min
Histogram: 1 0 0 3 0 2 6 4 3 1
Nghost:         755.05 ave         771 max         742 min
Histogram: 3 2 3 0 4 2 2 0 3 1
Neighs:        1040.35 ave        1251 max         812 min
Histogram: 2 1 1 1 4 2 4 2 1 2

Total # of neighbors = 20807
Ave neighs/atom = 57.797222
Neighbor list builds = 265840
Dangerous builds = 675
Total wall time: 0:14:21
LAMMPS (15 Sep 2022)
OMP_NUM_THREADS environment is not set. Defaulting to 1 thread. (src/comm.cpp:98)
  using 1 OpenMP thread(s) per MPI task
Reading restart file ...
  restart file = 15 Sep 2022, LAMMPS = 15 Sep 2022
  restoring atom style atomic from restart
  orthogonal box = (0 0 0) to (6.6943295 6.6943295 6.6943295)
  2 by 2 by 5 MPI processor grid
  restoring pair style lj/cut from restart
  360 atoms
  read_restart CPU = 0.043 seconds
Setting up annealing run
Resetting global fix info from restart file:
  fix style: nvt, fix ID: 1
Generated 0 of 1 mixed pair_coeff terms from geometric mixing rule
All restart file global fix info was re-assigned
Neighbor list info ...
  update: every = 1 steps, delay = 25 steps, check = yes
  max neighbors/atom: 2000, page size: 100000
  master list distance cutoff = 3
  ghost atom cutoff = 3
  binsize = 1.5, bins = 5 5 5
  1 neighbor lists, perpetual/occasional/extra = 1 0 0
  (1) pair lj/cut, perpetual
      attributes: half, newton on
      pair build: half/bin/atomonly/newton
      stencil: half/bin/3d
      bin: standard
Setting up Verlet run ...
  Unit style    : lj
  Current step  : 0
  Time step     : 0.003
Per MPI rank memory allocation (min/avg/max) = 4.08 | 4.08 | 4.081 Mbytes
   Step          Temp          E_pair         E_mol          TotEng         Press     
         0   0.475         -6.9082138      0             -6.1976929      3.8322094    
    300000   0.45989073    -6.9897228      0             -6.3018029      3.2392626    
    600000   0.46317724    -6.9650747      0             -6.2722388      3.2361929    
    900000   0.49840176    -6.9628691      0             -6.2173431      3.4549724    
   1200000   0.48808783    -6.936825       0             -6.2067269      3.698306     
   1500000   0.47065552    -6.9090475      0             -6.2050253      3.6004903    
   1800000   0.46535548    -6.9480948      0             -6.2520005      3.2796572    
   2100000   0.45493995    -6.9385085      0             -6.2579941      3.5084901    
   2400000   0.45819098    -6.9024751      0             -6.2170978      3.8571341    
   2700000   0.4938153     -6.9974336      0             -6.2587683      3.1280044    
   3000000   0.46203288    -7.0030435      0             -6.3119193      3.1630502    
   3300000   0.46474403    -7.0261681      0             -6.3309885      2.9714271    
   3600000   0.46694286    -6.9856803      0             -6.2872116      3.3240172    
   3900000   0.44355542    -7.0179543      0             -6.3544693      3.0753071    
   4200000   0.49008815    -7.017405       0             -6.2843148      3.0248805    
   4500000   0.4656276     -7.010948       0             -6.3144467      3.0000811    
   4800000   0.47841111    -7.0723787      0             -6.3567554      2.6709668    
   5100000   0.48510496    -6.9743296      0             -6.2486934      3.3542296    
   5400000   0.48811243    -7.038883       0             -6.3087482      3.0380715    
   5700000   0.47631108    -6.9917755      0             -6.2792935      3.3174416    
   6000000   0.49830173    -6.9136964      0             -6.16832        3.8784927    
   6300000   0.43625745    -6.9403396      0             -6.2877712      3.5591344    
   6600000   0.4750906     -6.9467186      0             -6.2360622      3.5551752    
   6900000   0.45115754    -6.8886774      0             -6.2138209      3.8469838    
   7200000   0.47461996    -6.9304846      0             -6.2205322      3.570848     
   7500000   0.50372084    -6.9209711      0             -6.1674887      3.7578394    
   7800000   0.50082869    -6.952918       0             -6.2037617      3.4652237    
   8100000   0.42674256    -6.9767681      0             -6.3384324      3.1846583    
   8400000   0.45953893    -7.0025503      0             -6.3151567      3.0563696    
   8700000   0.45970684    -6.9799736      0             -6.2923288      3.2122716    
   9000000   0.45134523    -6.996479       0             -6.3213417      3.1213527    
   9300000   0.46503442    -7.0284617      0             -6.3328478      3.031116     
   9600000   0.465495      -6.9766677      0             -6.2803648      3.2519304    
   9900000   0.48307916    -6.9856618      0             -6.2630559      3.1976787    
  10200000   0.5072293     -6.9830999      0             -6.2243695      3.2439353    
  10500000   0.45329844    -7.0272464      0             -6.3491874      2.9833491    
  10800000   0.45708986    -6.956404       0             -6.2726737      3.3855427    
  11100000   0.46618362    -7.0311915      0             -6.3338585      2.9611802    
  11400000   0.45824149    -7.0355825      0             -6.3501296      2.8176344    
  11700000   0.44403219    -7.0369462      0             -6.3727481      2.880217     
  12000000   0.45418154    -6.9215969      0             -6.2422171      3.6472419    
  12300000   0.47248614    -6.9865359      0             -6.2797754      3.3396301    
  12600000   0.50307843    -6.9373636      0             -6.1848421      3.6473338    
  12900000   0.4828086     -7.0447989      0             -6.3225977      2.79124      
  13200000   0.44572529    -7.0151011      0             -6.3483704      2.9894993    
  13500000   0.49717338    -6.9752153      0             -6.2315268      3.270854     
  13800000   0.46476794    -6.9795774      0             -6.284362       3.3137508    
  14100000   0.51569495    -6.9545087      0             -6.183115       3.4943352    
  14400000   0.42160537    -6.9902662      0             -6.3596148      3.1345982    
  14700000   0.44364014    -6.9799159      0             -6.3163042      3.2362812    
  15000000   0.44529728    -7.0118074      0             -6.3457169      3.1396078    
  15300000   0.4496115     -6.9458501      0             -6.2733063      3.4387381    
  15600000   0.50294124    -6.9838046      0             -6.2314884      3.1641583    
  15900000   0.46547145    -7.041817       0             -6.3455493      2.9866483    
  16200000   0.47981294    -6.9843946      0             -6.2666744      3.2340172    
  16500000   0.50283125    -6.9846934      0             -6.2325416      3.39903      
  16800000   0.5022674     -6.9319202      0             -6.1806119      3.5601461    
  17100000   0.48728637    -6.9466442      0             -6.217745       3.3710075    
  17400000   0.46190646    -6.9590612      0             -6.2681262      3.4761412    
  17700000   0.49003517    -7.0014435      0             -6.2684326      3.2691542    
  18000000   0.49128133    -6.9047219      0             -6.1698469      3.864397     
  18300000   0.46460693    -6.9705903      0             -6.2756158      3.3087009    
  18600000   0.48801858    -6.9568697      0             -6.2268753      3.4526575    
  18900000   0.47073644    -6.909066       0             -6.2049227      3.861367     
  19200000   0.44350154    -6.8909385      0             -6.2275341      3.8935437    
  19500000   0.48192247    -6.9063416      0             -6.1854659      3.6784828    
  19800000   0.4790309     -6.9604022      0             -6.2438518      3.4797565    
  20100000   0.46230381    -6.9781442      0             -6.2866148      3.1235519    
  20400000   0.51072881    -7.0014825      0             -6.2375174      3.2417725    
  20700000   0.46203092    -6.9584392      0             -6.2673179      3.398701     
  21000000   0.43298425    -6.9397271      0             -6.2920548      3.5007955    
  21300000   0.46560551    -6.9646268      0             -6.2681585      3.3492348    
  21600000   0.45817278    -7.0107761      0             -6.325426       3.0326467    
  21900000   0.45752245    -6.9712534      0             -6.2868761      3.3478753    
  22200000   0.48258845    -6.9739843      0             -6.2521124      3.3870541    
  22500000   0.47723605    -6.9305548      0             -6.2166892      3.5757832    
  22800000   0.45990068    -6.9437251      0             -6.2557904      3.3181109    
  23100000   0.49685909    -6.9665783      0             -6.2233599      3.278506     
  23400000   0.48415989    -6.9425784      0             -6.2183559      3.4356078    
  23700000   0.48281576    -6.9122435      0             -6.1900316      3.6894724    
  24000000   0.47707089    -6.9717706      0             -6.258152       3.5278624    
  24300000   0.44901972    -6.9613469      0             -6.2896883      3.3307156    
  24600000   0.44331029    -7.0201938      0             -6.3570755      2.9132578    
  24900000   0.49590192    -6.9912343      0             -6.2494477      3.2713256    
  25200000   0.46031434    -6.9127601      0             -6.2242065      3.7544037    
  25500000   0.44832982    -6.917779       0             -6.2471523      3.7560731    
  25800000   0.49311279    -6.9624567      0             -6.2248421      3.1356495    
  26100000   0.48127268    -7.0096215      0             -6.2897178      3.0654479    
  26400000   0.4883432     -6.9401797      0             -6.2096997      3.4029156    
  26700000   0.51939597    -6.9937636      0             -6.2168338      3.2422852    
  27000000   0.4558359     -6.9734521      0             -6.2915976      3.4293528    
  27300000   0.50207429    -6.9173178      0             -6.1662983      3.7284033    
  27600000   0.46716903    -6.947928       0             -6.249121       3.6276507    
  27900000   0.45533844    -6.9627175      0             -6.2816071      3.4363657    
  28200000   0.46295891    -7.0175763      0             -6.3250669      3.0388875    
  28500000   0.52615328    -6.9625444      0             -6.1755068      3.4565752    
  28800000   0.49417038    -6.9187315      0             -6.179535       3.6302983    
  29100000   0.4824712     -7.0273559      0             -6.3056594      2.9901587    
  29400000   0.47878896    -6.8964868      0             -6.1802983      3.8154998    
  29700000   0.45504572    -6.9188443      0             -6.2381717      3.6875429    
  30000000   0.47709899    -6.9793808      0             -6.2657202      3.2602393    
Loop time of 2593.36 on 20 procs for 30000000 steps with 360 atoms

Performance: 2998425.094 tau/day, 11567.998 timesteps/s, 4.164 Matom-step/s
99.7% CPU use with 20 MPI tasks x 1 OpenMP threads

MPI task timing breakdown:
Section |  min time  |  avg time  |  max time  |%varavg| %total
---------------------------------------------------------------
Pair    | 220.19     | 251.42     | 295.42     | 141.5 |  9.69
Neigh   | 28.098     | 31.275     | 34.966     |  37.8 |  1.21
Comm    | 1896.9     | 1952.9     | 1994.4     |  58.7 | 75.30
Output  | 0.013738   | 0.01394    | 0.015635   |   0.3 |  0.00
Modify  | 194.99     | 265.54     | 332.03     | 262.1 | 10.24
Other   |            | 92.19      |            |       |  3.55

Nlocal:             18 ave          21 max          15 min
Histogram: 2 1 0 6 0 4 3 0 1 3
Nghost:          750.4 ave         766 max         733 min
Histogram: 2 1 1 3 1 4 2 4 1 1
Neighs:        1039.65 ave        1321 max         825 min
Histogram: 2 2 2 3 3 3 3 0 1 1

Total # of neighbors = 20793
Ave neighs/atom = 57.758333
Neighbor list builds = 770744
Dangerous builds = 1012
Total wall time: 0:43:13
